 vasp.5.3.3 18Dez12 (build Jun 27 2014 16:47:47) complex                        
  
 executed on             LinuxIFC date 2017.03.23  18:22:58
 running on   20 total cores
 distrk:  each k-point on   20 cores,    1 groups
 distr:  one band on NCORES_PER_BAND=   2 cores,   10 groups


--------------------------------------------------------------------------------------------------------


 INCAR:
 POTCAR:   PAW_PBE Ag 06Sep2000                   

 ----------------------------------------------------------------------------- 
|                                                                             |
|           W    W    AA    RRRRR   N    N  II  N    N   GGGG   !!!           |
|           W    W   A  A   R    R  NN   N  II  NN   N  G    G  !!!           |
|           W    W  A    A  R    R  N N  N  II  N N  N  G       !!!           |
|           W WW W  AAAAAA  RRRRR   N  N N  II  N  N N  G  GGG   !            |
|           WW  WW  A    A  R   R   N   NN  II  N   NN  G    G                |
|           W    W  A    A  R    R  N    N  II  N    N   GGGG   !!!           |
|                                                                             |
|      For optimal performance we recommend that you set                      |
|        NPAR = 4 - approx SQRT( number of cores)                             |
|      (number of cores/NPAR must be integer)                                 |
|      This setting will greatly improve the performance of VASP for DFT.     |
|      The default NPAR=number of cores might be grossly inefficient          |
|      on modern multi-core architectures or massively parallel machines.     |
|      Do your own testing.                                                   |
|      Unfortunately you need to use the default for hybrid, GW and RPA       |
|      calculations.                                                          |
|                                                                             |
 ----------------------------------------------------------------------------- 

 POTCAR:   PAW_PBE Ag 06Sep2000                   
   VRHFIN =Ag : s1 d10                                                          
   LEXCH  = PE                                                                  
   EATOM  =  1037.4134 eV,   76.2477 Ry                                         
                                                                                
   TITEL  = PAW_PBE Ag 06Sep2000                                                
   LULTRA =        F    use ultrasoft PP ?                                      
   IUNSCR =        1    unscreen: 0-lin 1-nonlin 2-no                           
   RPACOR =    2.000    partial core radius                                     
   POMASS =  107.868; ZVAL   =   11.000    mass and valenz                      
   RCORE  =    2.400    outmost cutoff radius                                   
   RWIGS  =    2.840; RWIGS  =    1.503    wigner-seitz radius (au A)           
   ENMAX  =  249.846; ENMIN  =  187.385 eV                                      
   RCLOC  =    1.962    cutoff for local pot                                    
   LCOR   =        T    correct aug charges                                     
   LPAW   =        T    paw PP                                                  
   EAUG   =  412.496                                                            
   DEXC   =    -.047                                                            
   RMAX   =    2.917    core radius for proj-oper                               
   RAUG   =    1.300    factor for augmentation sphere                          
   RDEP   =    2.416    radius for radial grids                                 
   QCUT   =   -4.285; QGAM   =    8.570    optimization parameters              
                                                                                
   Description                                                                  
     l     E      TYP  RCUT    TYP  RCUT                                        
     2   .000     23  2.400                                                     
     2   .000     23  2.400                                                     
     0   .000     23  2.400                                                     
     0   .000     23  2.400                                                     
     1  -.200     23  2.400                                                     
     1  1.500     23  2.400                                                     
     3   .000      7   .000                                                     
  local pseudopotential read in
  partial core-charges read in
  atomic valenz-charges read in
  non local Contribution for L=           2  read in
    real space projection operators read in
  non local Contribution for L=           2  read in
    real space projection operators read in
  non local Contribution for L=           0  read in
    real space projection operators read in
  non local Contribution for L=           0  read in
    real space projection operators read in
  non local Contribution for L=           1  read in
    real space projection operators read in
  non local Contribution for L=           1  read in
    real space projection operators read in
    PAW grid and wavefunctions read in
 
   number of l-projection  operators is LMAX  =           6
   number of lm-projection operators is LMMAX =          18
 
 PAW_PBE Ag 06Sep2000                   :
 energy of atom  1       EATOM=-1037.4134
 kinetic energy error for atom=    0.0091 (will be added to EATOM!!)
 
 
 POSCAR: Ag bulk PBEsol                          
  positions in direct lattice
  No initial velocities read in
 exchange correlation table for  LEXCH =        8
   RHO(1)=    0.500       N(1)  =     2000
   RHO(2)=  100.500       N(2)  =     4000
 


--------------------------------------------------------------------------------------------------------


 ion  position               nearest neighbor table
   1  0.000  0.000  0.000-   2 2.97   3 2.97   4 2.97   3 2.97   4 2.97   2 2.97   4 2.97   4 2.97
                             2 2.97   3 2.97   3 2.97   2 2.97
   2  0.500  0.500  0.000-   1 2.97   3 2.97   4 2.97   3 2.97   4 2.97   1 2.97   3 2.97   3 2.97
                             1 2.97   4 2.97   4 2.97   1 2.97
   3  0.500  0.000  0.500-   1 2.97   2 2.97   4 2.97   1 2.97   2 2.97   2 2.97   4 2.97   2 2.97
                             1 2.97   4 2.97   1 2.97   4 2.97
   4  0.000  0.500  0.500-   1 2.97   2 2.97   3 2.97   1 2.97   2 2.97   1 2.97   3 2.97   1 2.97
                             2 2.97   3 2.97   2 2.97   3 2.97
 
  LATTYP: Found a simple cubic cell.
 ALAT       =     4.2000000000
  
  Lattice vectors:
  
 A1 = (   4.2000000000,   0.0000000000,   0.0000000000)
 A2 = (   0.0000000000,   4.2000000000,   0.0000000000)
 A3 = (   0.0000000000,   0.0000000000,   4.2000000000)


Analysis of symmetry for initial positions (statically):
=====================================================================
 Subroutine PRICEL returns following result:
 
  LATTYP: Found a face centered cubic cell.
 ALAT       =     4.2000000000
  
  Lattice vectors:
  
 A1 = (   2.1000000000,   2.1000000000,  -0.0000000000)
 A2 = (   2.1000000000,   0.0000000000,  -2.1000000000)
 A3 = (   0.0000000000,   2.1000000000,  -2.1000000000)
 
   4 primitive cells build up your supercell.
 

 Routine SETGRP: Setting up the symmetry group for a 
 simple cubic supercell.


 Subroutine GETGRP returns: Found 48 space group operations
 (whereof 48 operations were pure point group operations)
 out of a pool of 48 trial point group operations.


The static configuration has the point symmetry O_h .


Analysis of symmetry for dynamics (positions and initial velocities):
=====================================================================
 Subroutine PRICEL returns following result:
 
  LATTYP: Found a face centered cubic cell.
 ALAT       =     4.2000000000
  
  Lattice vectors:
  
 A1 = (   2.1000000000,   2.1000000000,  -0.0000000000)
 A2 = (   2.1000000000,   0.0000000000,  -2.1000000000)
 A3 = (   0.0000000000,   2.1000000000,  -2.1000000000)
 
   4 primitive cells build up your supercell.
 

 Routine SETGRP: Setting up the symmetry group for a 
 simple cubic supercell.


 Subroutine GETGRP returns: Found 48 space group operations
 (whereof 48 operations were pure point group operations)
 out of a pool of 48 trial point group operations.


The dynamic configuration has the point symmetry O_h .


 irot  :   1
 --------------------------------------------------------------------
 isymop:   1   0   0
           0   1   0
           0   0   1

 gtrans:     0.0000000     0.0000000    -0.0000000

 ptrans:     0.0000000     0.0000000     0.0000000
 rotmap:
 (   1->   1)  (   2->   2)  (   3->   3)  (   4->   4) 

 ptrans:     0.5000000     0.5000000     0.0000000
 rotmap:
 (   1->   2)  (   2->   1)  (   3->   4)  (   4->   3) 

 ptrans:     0.5000000     0.0000000     0.5000000
 rotmap:
 (   1->   3)  (   2->   4)  (   3->   1)  (   4->   2) 

 ptrans:     0.0000000     0.5000000     0.5000000
 rotmap:
 (   1->   4)  (   2->   3)  (   3->   2)  (   4->   1) 


 irot  :   2
 --------------------------------------------------------------------
 isymop:  -1   0   0
           0  -1   0
           0   0  -1

 gtrans:     0.0000000     0.0000000    -0.0000000

 ptrans:     0.0000000     0.0000000     0.0000000
 rotmap:
 (   1->   1)  (   2->   2)  (   3->   3)  (   4->   4) 

 ptrans:     0.5000000     0.5000000     0.0000000
 rotmap:
 (   1->   2)  (   2->   1)  (   3->   4)  (   4->   3) 

 ptrans:     0.5000000     0.0000000     0.5000000
 rotmap:
 (   1->   3)  (   2->   4)  (   3->   1)  (   4->   2) 

 ptrans:     0.0000000     0.5000000     0.5000000
 rotmap:
 (   1->   4)  (   2->   3)  (   3->   2)  (   4->   1) 


 irot  :   3
 --------------------------------------------------------------------
 isymop:   0   0   1
           1   0   0
           0   1   0

 gtrans:     0.0000000     0.0000000    -0.0000000

 ptrans:     0.0000000     0.0000000     0.0000000
 rotmap:
 (   1->   1)  (   2->   4)  (   3->   2)  (   4->   3) 

 ptrans:     0.5000000     0.5000000     0.0000000
 rotmap:
 (   1->   2)  (   2->   3)  (   3->   1)  (   4->   4) 

 ptrans:     0.5000000     0.0000000     0.5000000
 rotmap:
 (   1->   3)  (   2->   2)  (   3->   4)  (   4->   1) 

 ptrans:     0.0000000     0.5000000     0.5000000
 rotmap:
 (   1->   4)  (   2->   1)  (   3->   3)  (   4->   2) 


 irot  :   4
 --------------------------------------------------------------------
 isymop:   0   0  -1
          -1   0   0
           0  -1   0

 gtrans:     0.0000000     0.0000000    -0.0000000

 ptrans:     0.0000000     0.0000000     0.0000000
 rotmap:
 (   1->   1)  (   2->   4)  (   3->   2)  (   4->   3) 

 ptrans:     0.5000000     0.5000000     0.0000000
 rotmap:
 (   1->   2)  (   2->   3)  (   3->   1)  (   4->   4) 

 ptrans:     0.5000000     0.0000000     0.5000000
 rotmap:
 (   1->   3)  (   2->   2)  (   3->   4)  (   4->   1) 

 ptrans:     0.0000000     0.5000000     0.5000000
 rotmap:
 (   1->   4)  (   2->   1)  (   3->   3)  (   4->   2) 


 irot  :   5
 --------------------------------------------------------------------
 isymop:   0   1   0
           0   0   1
           1   0   0

 gtrans:     0.0000000     0.0000000    -0.0000000

 ptrans:     0.0000000     0.0000000     0.0000000
 rotmap:
 (   1->   1)  (   2->   3)  (   3->   4)  (   4->   2) 

 ptrans:     0.5000000     0.5000000     0.0000000
 rotmap:
 (   1->   2)  (   2->   4)  (   3->   3)  (   4->   1) 

 ptrans:     0.5000000     0.0000000     0.5000000
 rotmap:
 (   1->   3)  (   2->   1)  (   3->   2)  (   4->   4) 

 ptrans:     0.0000000     0.5000000     0.5000000
 rotmap:
 (   1->   4)  (   2->   2)  (   3->   1)  (   4->   3) 


 irot  :   6
 --------------------------------------------------------------------
 isymop:   0  -1   0
           0   0  -1
          -1   0   0

 gtrans:     0.0000000     0.0000000    -0.0000000

 ptrans:     0.0000000     0.0000000     0.0000000
 rotmap:
 (   1->   1)  (   2->   3)  (   3->   4)  (   4->   2) 

 ptrans:     0.5000000     0.5000000     0.0000000
 rotmap:
 (   1->   2)  (   2->   4)  (   3->   3)  (   4->   1) 

 ptrans:     0.5000000     0.0000000     0.5000000
 rotmap:
 (   1->   3)  (   2->   1)  (   3->   2)  (   4->   4) 

 ptrans:     0.0000000     0.5000000     0.5000000
 rotmap:
 (   1->   4)  (   2->   2)  (   3->   1)  (   4->   3) 


 irot  :   7
 --------------------------------------------------------------------
 isymop:   0  -1   0
           1   0   0
           0   0   1

 gtrans:     0.0000000     0.0000000    -0.0000000

 ptrans:     0.0000000     0.0000000     0.0000000
 rotmap:
 (   1->   1)  (   2->   2)  (   3->   4)  (   4->   3) 

 ptrans:     0.5000000     0.5000000     0.0000000
 rotmap:
 (   1->   2)  (   2->   1)  (   3->   3)  (   4->   4) 

 ptrans:     0.5000000     0.0000000     0.5000000
 rotmap:
 (   1->   3)  (   2->   4)  (   3->   2)  (   4->   1) 

 ptrans:     0.0000000     0.5000000     0.5000000
 rotmap:
 (   1->   4)  (   2->   3)  (   3->   1)  (   4->   2) 


 irot  :   8
 --------------------------------------------------------------------
 isymop:   0   1   0
          -1   0   0
           0   0  -1

 gtrans:     0.0000000     0.0000000    -0.0000000

 ptrans:     0.0000000     0.0000000     0.0000000
 rotmap:
 (   1->   1)  (   2->   2)  (   3->   4)  (   4->   3) 

 ptrans:     0.5000000     0.5000000     0.0000000
 rotmap:
 (   1->   2)  (   2->   1)  (   3->   3)  (   4->   4) 

 ptrans:     0.5000000     0.0000000     0.5000000
 rotmap:
 (   1->   3)  (   2->   4)  (   3->   2)  (   4->   1) 

 ptrans:     0.0000000     0.5000000     0.5000000
 rotmap:
 (   1->   4)  (   2->   3)  (   3->   1)  (   4->   2) 


 irot  :   9
 --------------------------------------------------------------------
 isymop:  -1   0   0
           0   0   1
           0   1   0

 gtrans:     0.0000000     0.0000000    -0.0000000

 ptrans:     0.0000000     0.0000000     0.0000000
 rotmap:
 (   1->   1)  (   2->   3)  (   3->   2)  (   4->   4) 

 ptrans:     0.5000000     0.5000000     0.0000000
 rotmap:
 (   1->   2)  (   2->   4)  (   3->   1)  (   4->   3) 

 ptrans:     0.5000000     0.0000000     0.5000000
 rotmap:
 (   1->   3)  (   2->   1)  (   3->   4)  (   4->   2) 

 ptrans:     0.0000000     0.5000000     0.5000000
 rotmap:
 (   1->   4)  (   2->   2)  (   3->   3)  (   4->   1) 


 irot  :  10
 --------------------------------------------------------------------
 isymop:   1   0   0
           0   0  -1
           0  -1   0

 gtrans:     0.0000000     0.0000000    -0.0000000

 ptrans:     0.0000000     0.0000000     0.0000000
 rotmap:
 (   1->   1)  (   2->   3)  (   3->   2)  (   4->   4) 

 ptrans:     0.5000000     0.5000000     0.0000000
 rotmap:
 (   1->   2)  (   2->   4)  (   3->   1)  (   4->   3) 

 ptrans:     0.5000000     0.0000000     0.5000000
 rotmap:
 (   1->   3)  (   2->   1)  (   3->   4)  (   4->   2) 

 ptrans:     0.0000000     0.5000000     0.5000000
 rotmap:
 (   1->   4)  (   2->   2)  (   3->   3)  (   4->   1) 


 irot  :  11
 --------------------------------------------------------------------
 isymop:   0   0  -1
           0   1   0
           1   0   0

 gtrans:     0.0000000     0.0000000    -0.0000000

 ptrans:     0.0000000     0.0000000     0.0000000
 rotmap:
 (   1->   1)  (   2->   4)  (   3->   3)  (   4->   2) 

 ptrans:     0.5000000     0.5000000     0.0000000
 rotmap:
 (   1->   2)  (   2->   3)  (   3->   4)  (   4->   1) 

 ptrans:     0.5000000     0.0000000     0.5000000
 rotmap:
 (   1->   3)  (   2->   2)  (   3->   1)  (   4->   4) 

 ptrans:     0.0000000     0.5000000     0.5000000
 rotmap:
 (   1->   4)  (   2->   1)  (   3->   2)  (   4->   3) 


 irot  :  12
 --------------------------------------------------------------------
 isymop:   0   0   1
           0  -1   0
          -1   0   0

 gtrans:     0.0000000     0.0000000    -0.0000000

 ptrans:     0.0000000     0.0000000     0.0000000
 rotmap:
 (   1->   1)  (   2->   4)  (   3->   3)  (   4->   2) 

 ptrans:     0.5000000     0.5000000     0.0000000
 rotmap:
 (   1->   2)  (   2->   3)  (   3->   4)  (   4->   1) 

 ptrans:     0.5000000     0.0000000     0.5000000
 rotmap:
 (   1->   3)  (   2->   2)  (   3->   1)  (   4->   4) 

 ptrans:     0.0000000     0.5000000     0.5000000
 rotmap:
 (   1->   4)  (   2->   1)  (   3->   2)  (   4->   3) 


 irot  :  13
 --------------------------------------------------------------------
 isymop:  -1   0   0
           0  -1   0
           0   0   1

 gtrans:     0.0000000     0.0000000    -0.0000000

 ptrans:     0.0000000     0.0000000     0.0000000
 rotmap:
 (   1->   1)  (   2->   2)  (   3->   3)  (   4->   4) 

 ptrans:     0.5000000     0.5000000     0.0000000
 rotmap:
 (   1->   2)  (   2->   1)  (   3->   4)  (   4->   3) 

 ptrans:     0.5000000     0.0000000     0.5000000
 rotmap:
 (   1->   3)  (   2->   4)  (   3->   1)  (   4->   2) 

 ptrans:     0.0000000     0.5000000     0.5000000
 rotmap:
 (   1->   4)  (   2->   3)  (   3->   2)  (   4->   1) 


 irot  :  14
 --------------------------------------------------------------------
 isymop:   1   0   0
           0   1   0
           0   0  -1

 gtrans:     0.0000000     0.0000000    -0.0000000

 ptrans:     0.0000000     0.0000000     0.0000000
 rotmap:
 (   1->   1)  (   2->   2)  (   3->   3)  (   4->   4) 

 ptrans:     0.5000000     0.5000000     0.0000000
 rotmap:
 (   1->   2)  (   2->   1)  (   3->   4)  (   4->   3) 

 ptrans:     0.5000000     0.0000000     0.5000000
 rotmap:
 (   1->   3)  (   2->   4)  (   3->   1)  (   4->   2) 

 ptrans:     0.0000000     0.5000000     0.5000000
 rotmap:
 (   1->   4)  (   2->   3)  (   3->   2)  (   4->   1) 


 irot  :  15
 --------------------------------------------------------------------
 isymop:   0   0  -1
          -1   0   0
           0   1   0

 gtrans:     0.0000000     0.0000000    -0.0000000

 ptrans:     0.0000000     0.0000000     0.0000000
 rotmap:
 (   1->   1)  (   2->   4)  (   3->   2)  (   4->   3) 

 ptrans:     0.5000000     0.5000000     0.0000000
 rotmap:
 (   1->   2)  (   2->   3)  (   3->   1)  (   4->   4) 

 ptrans:     0.5000000     0.0000000     0.5000000
 rotmap:
 (   1->   3)  (   2->   2)  (   3->   4)  (   4->   1) 

 ptrans:     0.0000000     0.5000000     0.5000000
 rotmap:
 (   1->   4)  (   2->   1)  (   3->   3)  (   4->   2) 


 irot  :  16
 --------------------------------------------------------------------
 isymop:   0   0   1
           1   0   0
           0  -1   0

 gtrans:     0.0000000     0.0000000    -0.0000000

 ptrans:     0.0000000     0.0000000     0.0000000
 rotmap:
 (   1->   1)  (   2->   4)  (   3->   2)  (   4->   3) 

 ptrans:     0.5000000     0.5000000     0.0000000
 rotmap:
 (   1->   2)  (   2->   3)  (   3->   1)  (   4->   4) 

 ptrans:     0.5000000     0.0000000     0.5000000
 rotmap:
 (   1->   3)  (   2->   2)  (   3->   4)  (   4->   1) 

 ptrans:     0.0000000     0.5000000     0.5000000
 rotmap:
 (   1->   4)  (   2->   1)  (   3->   3)  (   4->   2) 


 irot  :  17
 --------------------------------------------------------------------
 isymop:   0  -1   0
           0   0  -1
           1   0   0

 gtrans:     0.0000000     0.0000000    -0.0000000

 ptrans:     0.0000000     0.0000000     0.0000000
 rotmap:
 (   1->   1)  (   2->   3)  (   3->   4)  (   4->   2) 

 ptrans:     0.5000000     0.5000000     0.0000000
 rotmap:
 (   1->   2)  (   2->   4)  (   3->   3)  (   4->   1) 

 ptrans:     0.5000000     0.0000000     0.5000000
 rotmap:
 (   1->   3)  (   2->   1)  (   3->   2)  (   4->   4) 

 ptrans:     0.0000000     0.5000000     0.5000000
 rotmap:
 (   1->   4)  (   2->   2)  (   3->   1)  (   4->   3) 


 irot  :  18
 --------------------------------------------------------------------
 isymop:   0   1   0
           0   0   1
          -1   0   0

 gtrans:     0.0000000     0.0000000    -0.0000000

 ptrans:     0.0000000     0.0000000     0.0000000
 rotmap:
 (   1->   1)  (   2->   3)  (   3->   4)  (   4->   2) 

 ptrans:     0.5000000     0.5000000     0.0000000
 rotmap:
 (   1->   2)  (   2->   4)  (   3->   3)  (   4->   1) 

 ptrans:     0.5000000     0.0000000     0.5000000
 rotmap:
 (   1->   3)  (   2->   1)  (   3->   2)  (   4->   4) 

 ptrans:     0.0000000     0.5000000     0.5000000
 rotmap:
 (   1->   4)  (   2->   2)  (   3->   1)  (   4->   3) 


 irot  :  19
 --------------------------------------------------------------------
 isymop:   0   1   0
          -1   0   0
           0   0   1

 gtrans:     0.0000000     0.0000000    -0.0000000

 ptrans:     0.0000000     0.0000000     0.0000000
 rotmap:
 (   1->   1)  (   2->   2)  (   3->   4)  (   4->   3) 

 ptrans:     0.5000000     0.5000000     0.0000000
 rotmap:
 (   1->   2)  (   2->   1)  (   3->   3)  (   4->   4) 

 ptrans:     0.5000000     0.0000000     0.5000000
 rotmap:
 (   1->   3)  (   2->   4)  (   3->   2)  (   4->   1) 

 ptrans:     0.0000000     0.5000000     0.5000000
 rotmap:
 (   1->   4)  (   2->   3)  (   3->   1)  (   4->   2) 


 irot  :  20
 --------------------------------------------------------------------
 isymop:   0  -1   0
           1   0   0
           0   0  -1

 gtrans:     0.0000000     0.0000000    -0.0000000

 ptrans:     0.0000000     0.0000000     0.0000000
 rotmap:
 (   1->   1)  (   2->   2)  (   3->   4)  (   4->   3) 

 ptrans:     0.5000000     0.5000000     0.0000000
 rotmap:
 (   1->   2)  (   2->   1)  (   3->   3)  (   4->   4) 

 ptrans:     0.5000000     0.0000000     0.5000000
 rotmap:
 (   1->   3)  (   2->   4)  (   3->   2)  (   4->   1) 

 ptrans:     0.0000000     0.5000000     0.5000000
 rotmap:
 (   1->   4)  (   2->   3)  (   3->   1)  (   4->   2) 


 irot  :  21
 --------------------------------------------------------------------
 isymop:   1   0   0
           0   0  -1
           0   1   0

 gtrans:     0.0000000     0.0000000    -0.0000000

 ptrans:     0.0000000     0.0000000     0.0000000
 rotmap:
 (   1->   1)  (   2->   3)  (   3->   2)  (   4->   4) 

 ptrans:     0.5000000     0.5000000     0.0000000
 rotmap:
 (   1->   2)  (   2->   4)  (   3->   1)  (   4->   3) 

 ptrans:     0.5000000     0.0000000     0.5000000
 rotmap:
 (   1->   3)  (   2->   1)  (   3->   4)  (   4->   2) 

 ptrans:     0.0000000     0.5000000     0.5000000
 rotmap:
 (   1->   4)  (   2->   2)  (   3->   3)  (   4->   1) 


 irot  :  22
 --------------------------------------------------------------------
 isymop:  -1   0   0
           0   0   1
           0  -1   0

 gtrans:     0.0000000     0.0000000    -0.0000000

 ptrans:     0.0000000     0.0000000     0.0000000
 rotmap:
 (   1->   1)  (   2->   3)  (   3->   2)  (   4->   4) 

 ptrans:     0.5000000     0.5000000     0.0000000
 rotmap:
 (   1->   2)  (   2->   4)  (   3->   1)  (   4->   3) 

 ptrans:     0.5000000     0.0000000     0.5000000
 rotmap:
 (   1->   3)  (   2->   1)  (   3->   4)  (   4->   2) 

 ptrans:     0.0000000     0.5000000     0.5000000
 rotmap:
 (   1->   4)  (   2->   2)  (   3->   3)  (   4->   1) 


 irot  :  23
 --------------------------------------------------------------------
 isymop:   0   0   1
           0  -1   0
           1   0   0

 gtrans:     0.0000000     0.0000000    -0.0000000

 ptrans:     0.0000000     0.0000000     0.0000000
 rotmap:
 (   1->   1)  (   2->   4)  (   3->   3)  (   4->   2) 

 ptrans:     0.5000000     0.5000000     0.0000000
 rotmap:
 (   1->   2)  (   2->   3)  (   3->   4)  (   4->   1) 

 ptrans:     0.5000000     0.0000000     0.5000000
 rotmap:
 (   1->   3)  (   2->   2)  (   3->   1)  (   4->   4) 

 ptrans:     0.0000000     0.5000000     0.5000000
 rotmap:
 (   1->   4)  (   2->   1)  (   3->   2)  (   4->   3) 


 irot  :  24
 --------------------------------------------------------------------
 isymop:   0   0  -1
           0   1   0
          -1   0   0

 gtrans:     0.0000000     0.0000000    -0.0000000

 ptrans:     0.0000000     0.0000000     0.0000000
 rotmap:
 (   1->   1)  (   2->   4)  (   3->   3)  (   4->   2) 

 ptrans:     0.5000000     0.5000000     0.0000000
 rotmap:
 (   1->   2)  (   2->   3)  (   3->   4)  (   4->   1) 

 ptrans:     0.5000000     0.0000000     0.5000000
 rotmap:
 (   1->   3)  (   2->   2)  (   3->   1)  (   4->   4) 

 ptrans:     0.0000000     0.5000000     0.5000000
 rotmap:
 (   1->   4)  (   2->   1)  (   3->   2)  (   4->   3) 


 irot  :  25
 --------------------------------------------------------------------
 isymop:   0   0   1
          -1   0   0
           0  -1   0

 gtrans:     0.0000000     0.0000000    -0.0000000

 ptrans:     0.0000000     0.0000000     0.0000000
 rotmap:
 (   1->   1)  (   2->   4)  (   3->   2)  (   4->   3) 

 ptrans:     0.5000000     0.5000000     0.0000000
 rotmap:
 (   1->   2)  (   2->   3)  (   3->   1)  (   4->   4) 

 ptrans:     0.5000000     0.0000000     0.5000000
 rotmap:
 (   1->   3)  (   2->   2)  (   3->   4)  (   4->   1) 

 ptrans:     0.0000000     0.5000000     0.5000000
 rotmap:
 (   1->   4)  (   2->   1)  (   3->   3)  (   4->   2) 


 irot  :  26
 --------------------------------------------------------------------
 isymop:   0   0  -1
           1   0   0
           0   1   0

 gtrans:     0.0000000     0.0000000    -0.0000000

 ptrans:     0.0000000     0.0000000     0.0000000
 rotmap:
 (   1->   1)  (   2->   4)  (   3->   2)  (   4->   3) 

 ptrans:     0.5000000     0.5000000     0.0000000
 rotmap:
 (   1->   2)  (   2->   3)  (   3->   1)  (   4->   4) 

 ptrans:     0.5000000     0.0000000     0.5000000
 rotmap:
 (   1->   3)  (   2->   2)  (   3->   4)  (   4->   1) 

 ptrans:     0.0000000     0.5000000     0.5000000
 rotmap:
 (   1->   4)  (   2->   1)  (   3->   3)  (   4->   2) 


 irot  :  27
 --------------------------------------------------------------------
 isymop:   0   1   0
           0   0  -1
          -1   0   0

 gtrans:     0.0000000     0.0000000    -0.0000000

 ptrans:     0.0000000     0.0000000     0.0000000
 rotmap:
 (   1->   1)  (   2->   3)  (   3->   4)  (   4->   2) 

 ptrans:     0.5000000     0.5000000     0.0000000
 rotmap:
 (   1->   2)  (   2->   4)  (   3->   3)  (   4->   1) 

 ptrans:     0.5000000     0.0000000     0.5000000
 rotmap:
 (   1->   3)  (   2->   1)  (   3->   2)  (   4->   4) 

 ptrans:     0.0000000     0.5000000     0.5000000
 rotmap:
 (   1->   4)  (   2->   2)  (   3->   1)  (   4->   3) 


 irot  :  28
 --------------------------------------------------------------------
 isymop:   0  -1   0
           0   0   1
           1   0   0

 gtrans:     0.0000000     0.0000000    -0.0000000

 ptrans:     0.0000000     0.0000000     0.0000000
 rotmap:
 (   1->   1)  (   2->   3)  (   3->   4)  (   4->   2) 

 ptrans:     0.5000000     0.5000000     0.0000000
 rotmap:
 (   1->   2)  (   2->   4)  (   3->   3)  (   4->   1) 

 ptrans:     0.5000000     0.0000000     0.5000000
 rotmap:
 (   1->   3)  (   2->   1)  (   3->   2)  (   4->   4) 

 ptrans:     0.0000000     0.5000000     0.5000000
 rotmap:
 (   1->   4)  (   2->   2)  (   3->   1)  (   4->   3) 


 irot  :  29
 --------------------------------------------------------------------
 isymop:   1   0   0
           0  -1   0
           0   0  -1

 gtrans:     0.0000000     0.0000000    -0.0000000

 ptrans:     0.0000000     0.0000000     0.0000000
 rotmap:
 (   1->   1)  (   2->   2)  (   3->   3)  (   4->   4) 

 ptrans:     0.5000000     0.5000000     0.0000000
 rotmap:
 (   1->   2)  (   2->   1)  (   3->   4)  (   4->   3) 

 ptrans:     0.5000000     0.0000000     0.5000000
 rotmap:
 (   1->   3)  (   2->   4)  (   3->   1)  (   4->   2) 

 ptrans:     0.0000000     0.5000000     0.5000000
 rotmap:
 (   1->   4)  (   2->   3)  (   3->   2)  (   4->   1) 


 irot  :  30
 --------------------------------------------------------------------
 isymop:  -1   0   0
           0   1   0
           0   0   1

 gtrans:     0.0000000     0.0000000    -0.0000000

 ptrans:     0.0000000     0.0000000     0.0000000
 rotmap:
 (   1->   1)  (   2->   2)  (   3->   3)  (   4->   4) 

 ptrans:     0.5000000     0.5000000     0.0000000
 rotmap:
 (   1->   2)  (   2->   1)  (   3->   4)  (   4->   3) 

 ptrans:     0.5000000     0.0000000     0.5000000
 rotmap:
 (   1->   3)  (   2->   4)  (   3->   1)  (   4->   2) 

 ptrans:     0.0000000     0.5000000     0.5000000
 rotmap:
 (   1->   4)  (   2->   3)  (   3->   2)  (   4->   1) 


 irot  :  31
 --------------------------------------------------------------------
 isymop:   0   0   1
           0   1   0
          -1   0   0

 gtrans:     0.0000000     0.0000000    -0.0000000

 ptrans:     0.0000000     0.0000000     0.0000000
 rotmap:
 (   1->   1)  (   2->   4)  (   3->   3)  (   4->   2) 

 ptrans:     0.5000000     0.5000000     0.0000000
 rotmap:
 (   1->   2)  (   2->   3)  (   3->   4)  (   4->   1) 

 ptrans:     0.5000000     0.0000000     0.5000000
 rotmap:
 (   1->   3)  (   2->   2)  (   3->   1)  (   4->   4) 

 ptrans:     0.0000000     0.5000000     0.5000000
 rotmap:
 (   1->   4)  (   2->   1)  (   3->   2)  (   4->   3) 


 irot  :  32
 --------------------------------------------------------------------
 isymop:   0   0  -1
           0  -1   0
           1   0   0

 gtrans:     0.0000000     0.0000000    -0.0000000

 ptrans:     0.0000000     0.0000000     0.0000000
 rotmap:
 (   1->   1)  (   2->   4)  (   3->   3)  (   4->   2) 

 ptrans:     0.5000000     0.5000000     0.0000000
 rotmap:
 (   1->   2)  (   2->   3)  (   3->   4)  (   4->   1) 

 ptrans:     0.5000000     0.0000000     0.5000000
 rotmap:
 (   1->   3)  (   2->   2)  (   3->   1)  (   4->   4) 

 ptrans:     0.0000000     0.5000000     0.5000000
 rotmap:
 (   1->   4)  (   2->   1)  (   3->   2)  (   4->   3) 


 irot  :  33
 --------------------------------------------------------------------
 isymop:   0   1   0
           1   0   0
           0   0  -1

 gtrans:     0.0000000     0.0000000    -0.0000000

 ptrans:     0.0000000     0.0000000     0.0000000
 rotmap:
 (   1->   1)  (   2->   2)  (   3->   4)  (   4->   3) 

 ptrans:     0.5000000     0.5000000     0.0000000
 rotmap:
 (   1->   2)  (   2->   1)  (   3->   3)  (   4->   4) 

 ptrans:     0.5000000     0.0000000     0.5000000
 rotmap:
 (   1->   3)  (   2->   4)  (   3->   2)  (   4->   1) 

 ptrans:     0.0000000     0.5000000     0.5000000
 rotmap:
 (   1->   4)  (   2->   3)  (   3->   1)  (   4->   2) 


 irot  :  34
 --------------------------------------------------------------------
 isymop:   0  -1   0
          -1   0   0
           0   0   1

 gtrans:     0.0000000     0.0000000    -0.0000000

 ptrans:     0.0000000     0.0000000     0.0000000
 rotmap:
 (   1->   1)  (   2->   2)  (   3->   4)  (   4->   3) 

 ptrans:     0.5000000     0.5000000     0.0000000
 rotmap:
 (   1->   2)  (   2->   1)  (   3->   3)  (   4->   4) 

 ptrans:     0.5000000     0.0000000     0.5000000
 rotmap:
 (   1->   3)  (   2->   4)  (   3->   2)  (   4->   1) 

 ptrans:     0.0000000     0.5000000     0.5000000
 rotmap:
 (   1->   4)  (   2->   3)  (   3->   1)  (   4->   2) 


 irot  :  35
 --------------------------------------------------------------------
 isymop:   1   0   0
           0   0   1
           0  -1   0

 gtrans:     0.0000000     0.0000000    -0.0000000

 ptrans:     0.0000000     0.0000000     0.0000000
 rotmap:
 (   1->   1)  (   2->   3)  (   3->   2)  (   4->   4) 

 ptrans:     0.5000000     0.5000000     0.0000000
 rotmap:
 (   1->   2)  (   2->   4)  (   3->   1)  (   4->   3) 

 ptrans:     0.5000000     0.0000000     0.5000000
 rotmap:
 (   1->   3)  (   2->   1)  (   3->   4)  (   4->   2) 

 ptrans:     0.0000000     0.5000000     0.5000000
 rotmap:
 (   1->   4)  (   2->   2)  (   3->   3)  (   4->   1) 


 irot  :  36
 --------------------------------------------------------------------
 isymop:  -1   0   0
           0   0  -1
           0   1   0

 gtrans:     0.0000000     0.0000000    -0.0000000

 ptrans:     0.0000000     0.0000000     0.0000000
 rotmap:
 (   1->   1)  (   2->   3)  (   3->   2)  (   4->   4) 

 ptrans:     0.5000000     0.5000000     0.0000000
 rotmap:
 (   1->   2)  (   2->   4)  (   3->   1)  (   4->   3) 

 ptrans:     0.5000000     0.0000000     0.5000000
 rotmap:
 (   1->   3)  (   2->   1)  (   3->   4)  (   4->   2) 

 ptrans:     0.0000000     0.5000000     0.5000000
 rotmap:
 (   1->   4)  (   2->   2)  (   3->   3)  (   4->   1) 


 irot  :  37
 --------------------------------------------------------------------
 isymop:   0  -1   0
           0   0   1
          -1   0   0

 gtrans:     0.0000000     0.0000000    -0.0000000

 ptrans:     0.0000000     0.0000000     0.0000000
 rotmap:
 (   1->   1)  (   2->   3)  (   3->   4)  (   4->   2) 

 ptrans:     0.5000000     0.5000000     0.0000000
 rotmap:
 (   1->   2)  (   2->   4)  (   3->   3)  (   4->   1) 

 ptrans:     0.5000000     0.0000000     0.5000000
 rotmap:
 (   1->   3)  (   2->   1)  (   3->   2)  (   4->   4) 

 ptrans:     0.0000000     0.5000000     0.5000000
 rotmap:
 (   1->   4)  (   2->   2)  (   3->   1)  (   4->   3) 


 irot  :  38
 --------------------------------------------------------------------
 isymop:   0   1   0
           0   0  -1
           1   0   0

 gtrans:     0.0000000     0.0000000    -0.0000000

 ptrans:     0.0000000     0.0000000     0.0000000
 rotmap:
 (   1->   1)  (   2->   3)  (   3->   4)  (   4->   2) 

 ptrans:     0.5000000     0.5000000     0.0000000
 rotmap:
 (   1->   2)  (   2->   4)  (   3->   3)  (   4->   1) 

 ptrans:     0.5000000     0.0000000     0.5000000
 rotmap:
 (   1->   3)  (   2->   1)  (   3->   2)  (   4->   4) 

 ptrans:     0.0000000     0.5000000     0.5000000
 rotmap:
 (   1->   4)  (   2->   2)  (   3->   1)  (   4->   3) 


 irot  :  39
 --------------------------------------------------------------------
 isymop:  -1   0   0
           0   1   0
           0   0  -1

 gtrans:     0.0000000     0.0000000    -0.0000000

 ptrans:     0.0000000     0.0000000     0.0000000
 rotmap:
 (   1->   1)  (   2->   2)  (   3->   3)  (   4->   4) 

 ptrans:     0.5000000     0.5000000     0.0000000
 rotmap:
 (   1->   2)  (   2->   1)  (   3->   4)  (   4->   3) 

 ptrans:     0.5000000     0.0000000     0.5000000
 rotmap:
 (   1->   3)  (   2->   4)  (   3->   1)  (   4->   2) 

 ptrans:     0.0000000     0.5000000     0.5000000
 rotmap:
 (   1->   4)  (   2->   3)  (   3->   2)  (   4->   1) 


 irot  :  40
 --------------------------------------------------------------------
 isymop:   1   0   0
           0  -1   0
           0   0   1

 gtrans:     0.0000000     0.0000000    -0.0000000

 ptrans:     0.0000000     0.0000000     0.0000000
 rotmap:
 (   1->   1)  (   2->   2)  (   3->   3)  (   4->   4) 

 ptrans:     0.5000000     0.5000000     0.0000000
 rotmap:
 (   1->   2)  (   2->   1)  (   3->   4)  (   4->   3) 

 ptrans:     0.5000000     0.0000000     0.5000000
 rotmap:
 (   1->   3)  (   2->   4)  (   3->   1)  (   4->   2) 

 ptrans:     0.0000000     0.5000000     0.5000000
 rotmap:
 (   1->   4)  (   2->   3)  (   3->   2)  (   4->   1) 


 irot  :  41
 --------------------------------------------------------------------
 isymop:   0   0  -1
           1   0   0
           0  -1   0

 gtrans:     0.0000000     0.0000000    -0.0000000

 ptrans:     0.0000000     0.0000000     0.0000000
 rotmap:
 (   1->   1)  (   2->   4)  (   3->   2)  (   4->   3) 

 ptrans:     0.5000000     0.5000000     0.0000000
 rotmap:
 (   1->   2)  (   2->   3)  (   3->   1)  (   4->   4) 

 ptrans:     0.5000000     0.0000000     0.5000000
 rotmap:
 (   1->   3)  (   2->   2)  (   3->   4)  (   4->   1) 

 ptrans:     0.0000000     0.5000000     0.5000000
 rotmap:
 (   1->   4)  (   2->   1)  (   3->   3)  (   4->   2) 


 irot  :  42
 --------------------------------------------------------------------
 isymop:   0   0   1
          -1   0   0
           0   1   0

 gtrans:     0.0000000     0.0000000    -0.0000000

 ptrans:     0.0000000     0.0000000     0.0000000
 rotmap:
 (   1->   1)  (   2->   4)  (   3->   2)  (   4->   3) 

 ptrans:     0.5000000     0.5000000     0.0000000
 rotmap:
 (   1->   2)  (   2->   3)  (   3->   1)  (   4->   4) 

 ptrans:     0.5000000     0.0000000     0.5000000
 rotmap:
 (   1->   3)  (   2->   2)  (   3->   4)  (   4->   1) 

 ptrans:     0.0000000     0.5000000     0.5000000
 rotmap:
 (   1->   4)  (   2->   1)  (   3->   3)  (   4->   2) 


 irot  :  43
 --------------------------------------------------------------------
 isymop:  -1   0   0
           0   0  -1
           0  -1   0

 gtrans:     0.0000000     0.0000000    -0.0000000

 ptrans:     0.0000000     0.0000000     0.0000000
 rotmap:
 (   1->   1)  (   2->   3)  (   3->   2)  (   4->   4) 

 ptrans:     0.5000000     0.5000000     0.0000000
 rotmap:
 (   1->   2)  (   2->   4)  (   3->   1)  (   4->   3) 

 ptrans:     0.5000000     0.0000000     0.5000000
 rotmap:
 (   1->   3)  (   2->   1)  (   3->   4)  (   4->   2) 

 ptrans:     0.0000000     0.5000000     0.5000000
 rotmap:
 (   1->   4)  (   2->   2)  (   3->   3)  (   4->   1) 


 irot  :  44
 --------------------------------------------------------------------
 isymop:   1   0   0
           0   0   1
           0   1   0

 gtrans:     0.0000000     0.0000000    -0.0000000

 ptrans:     0.0000000     0.0000000     0.0000000
 rotmap:
 (   1->   1)  (   2->   3)  (   3->   2)  (   4->   4) 

 ptrans:     0.5000000     0.5000000     0.0000000
 rotmap:
 (   1->   2)  (   2->   4)  (   3->   1)  (   4->   3) 

 ptrans:     0.5000000     0.0000000     0.5000000
 rotmap:
 (   1->   3)  (   2->   1)  (   3->   4)  (   4->   2) 

 ptrans:     0.0000000     0.5000000     0.5000000
 rotmap:
 (   1->   4)  (   2->   2)  (   3->   3)  (   4->   1) 


 irot  :  45
 --------------------------------------------------------------------
 isymop:   0  -1   0
          -1   0   0
           0   0  -1

 gtrans:     0.0000000     0.0000000    -0.0000000

 ptrans:     0.0000000     0.0000000     0.0000000
 rotmap:
 (   1->   1)  (   2->   2)  (   3->   4)  (   4->   3) 

 ptrans:     0.5000000     0.5000000     0.0000000
 rotmap:
 (   1->   2)  (   2->   1)  (   3->   3)  (   4->   4) 

 ptrans:     0.5000000     0.0000000     0.5000000
 rotmap:
 (   1->   3)  (   2->   4)  (   3->   2)  (   4->   1) 

 ptrans:     0.0000000     0.5000000     0.5000000
 rotmap:
 (   1->   4)  (   2->   3)  (   3->   1)  (   4->   2) 


 irot  :  46
 --------------------------------------------------------------------
 isymop:   0   1   0
           1   0   0
           0   0   1

 gtrans:     0.0000000     0.0000000    -0.0000000

 ptrans:     0.0000000     0.0000000     0.0000000
 rotmap:
 (   1->   1)  (   2->   2)  (   3->   4)  (   4->   3) 

 ptrans:     0.5000000     0.5000000     0.0000000
 rotmap:
 (   1->   2)  (   2->   1)  (   3->   3)  (   4->   4) 

 ptrans:     0.5000000     0.0000000     0.5000000
 rotmap:
 (   1->   3)  (   2->   4)  (   3->   2)  (   4->   1) 

 ptrans:     0.0000000     0.5000000     0.5000000
 rotmap:
 (   1->   4)  (   2->   3)  (   3->   1)  (   4->   2) 


 irot  :  47
 --------------------------------------------------------------------
 isymop:   0   0  -1
           0  -1   0
          -1   0   0

 gtrans:     0.0000000     0.0000000    -0.0000000

 ptrans:     0.0000000     0.0000000     0.0000000
 rotmap:
 (   1->   1)  (   2->   4)  (   3->   3)  (   4->   2) 

 ptrans:     0.5000000     0.5000000     0.0000000
 rotmap:
 (   1->   2)  (   2->   3)  (   3->   4)  (   4->   1) 

 ptrans:     0.5000000     0.0000000     0.5000000
 rotmap:
 (   1->   3)  (   2->   2)  (   3->   1)  (   4->   4) 

 ptrans:     0.0000000     0.5000000     0.5000000
 rotmap:
 (   1->   4)  (   2->   1)  (   3->   2)  (   4->   3) 


 irot  :  48
 --------------------------------------------------------------------
 isymop:   0   0   1
           0   1   0
           1   0   0

 gtrans:     0.0000000     0.0000000    -0.0000000

 ptrans:     0.0000000     0.0000000     0.0000000
 rotmap:
 (   1->   1)  (   2->   4)  (   3->   3)  (   4->   2) 

 ptrans:     0.5000000     0.5000000     0.0000000
 rotmap:
 (   1->   2)  (   2->   3)  (   3->   4)  (   4->   1) 

 ptrans:     0.5000000     0.0000000     0.5000000
 rotmap:
 (   1->   3)  (   2->   2)  (   3->   1)  (   4->   4) 

 ptrans:     0.0000000     0.5000000     0.5000000
 rotmap:
 (   1->   4)  (   2->   1)  (   3->   2)  (   4->   3) 
 
 
 KPOINTS: Automatic mesh                          

Automatic generation of k-mesh.
Space group operators:
 irot       det(A)        alpha          n_x          n_y          n_z        tau_x        tau_y        tau_z
    1     1.000000     0.000000     1.000000     0.000000     0.000000     0.000000     0.000000    -0.000000
    2    -1.000000     0.000000     1.000000     0.000000     0.000000     0.000000     0.000000    -0.000000
    3     1.000000   120.000000    -0.577350    -0.577350    -0.577350     0.000000     0.000000    -0.000000
    4    -1.000000   120.000000    -0.577350    -0.577350    -0.577350     0.000000     0.000000    -0.000000
    5     1.000000   120.000000     0.577350     0.577350     0.577350     0.000000     0.000000    -0.000000
    6    -1.000000   120.000000     0.577350     0.577350     0.577350     0.000000     0.000000    -0.000000
    7     1.000000    90.000000     0.000000     0.000000    -1.000000     0.000000     0.000000    -0.000000
    8    -1.000000    90.000000     0.000000     0.000000    -1.000000     0.000000     0.000000    -0.000000
    9     1.000000   180.000000     0.000000     0.707107     0.707107     0.000000     0.000000    -0.000000
   10    -1.000000   180.000000     0.000000     0.707107     0.707107     0.000000     0.000000    -0.000000
   11     1.000000    90.000000     0.000000     1.000000     0.000000     0.000000     0.000000    -0.000000
   12    -1.000000    90.000000     0.000000     1.000000     0.000000     0.000000     0.000000    -0.000000
   13     1.000000   180.000000     0.000000     0.000000     1.000000     0.000000     0.000000    -0.000000
   14    -1.000000   180.000000     0.000000     0.000000     1.000000     0.000000     0.000000    -0.000000
   15     1.000000   120.000000    -0.577350     0.577350     0.577350     0.000000     0.000000    -0.000000
   16    -1.000000   120.000000    -0.577350     0.577350     0.577350     0.000000     0.000000    -0.000000
   17     1.000000   120.000000    -0.577350     0.577350    -0.577350     0.000000     0.000000    -0.000000
   18    -1.000000   120.000000    -0.577350     0.577350    -0.577350     0.000000     0.000000    -0.000000
   19     1.000000    90.000000     0.000000     0.000000     1.000000     0.000000     0.000000    -0.000000
   20    -1.000000    90.000000     0.000000     0.000000     1.000000     0.000000     0.000000    -0.000000
   21     1.000000    90.000000    -1.000000     0.000000     0.000000     0.000000     0.000000    -0.000000
   22    -1.000000    90.000000    -1.000000     0.000000     0.000000     0.000000     0.000000    -0.000000
   23     1.000000   180.000000     0.707107     0.000000     0.707107     0.000000     0.000000    -0.000000
   24    -1.000000   180.000000     0.707107     0.000000     0.707107     0.000000     0.000000    -0.000000
   25     1.000000   120.000000     0.577350    -0.577350     0.577350     0.000000     0.000000    -0.000000
   26    -1.000000   120.000000     0.577350    -0.577350     0.577350     0.000000     0.000000    -0.000000
   27     1.000000   120.000000    -0.577350    -0.577350     0.577350     0.000000     0.000000    -0.000000
   28    -1.000000   120.000000    -0.577350    -0.577350     0.577350     0.000000     0.000000    -0.000000
   29     1.000000   180.000000     1.000000     0.000000     0.000000     0.000000     0.000000    -0.000000
   30    -1.000000   180.000000     1.000000     0.000000     0.000000     0.000000     0.000000    -0.000000
   31     1.000000    90.000000     0.000000    -1.000000     0.000000     0.000000     0.000000    -0.000000
   32    -1.000000    90.000000     0.000000    -1.000000     0.000000     0.000000     0.000000    -0.000000
   33     1.000000   180.000000     0.707107     0.707107     0.000000     0.000000     0.000000    -0.000000
   34    -1.000000   180.000000     0.707107     0.707107     0.000000     0.000000     0.000000    -0.000000
   35     1.000000    90.000000     1.000000     0.000000     0.000000     0.000000     0.000000    -0.000000
   36    -1.000000    90.000000     1.000000     0.000000     0.000000     0.000000     0.000000    -0.000000
   37     1.000000   120.000000     0.577350    -0.577350    -0.577350     0.000000     0.000000    -0.000000
   38    -1.000000   120.000000     0.577350    -0.577350    -0.577350     0.000000     0.000000    -0.000000
   39     1.000000   180.000000     0.000000     1.000000     0.000000     0.000000     0.000000    -0.000000
   40    -1.000000   180.000000     0.000000     1.000000     0.000000     0.000000     0.000000    -0.000000
   41     1.000000   120.000000     0.577350     0.577350    -0.577350     0.000000     0.000000    -0.000000
   42    -1.000000   120.000000     0.577350     0.577350    -0.577350     0.000000     0.000000    -0.000000
   43     1.000000   180.000000     0.000000    -0.707107     0.707107     0.000000     0.000000    -0.000000
   44    -1.000000   180.000000     0.000000    -0.707107     0.707107     0.000000     0.000000    -0.000000
   45     1.000000   180.000000     0.707107    -0.707107     0.000000     0.000000     0.000000    -0.000000
   46    -1.000000   180.000000     0.707107    -0.707107     0.000000     0.000000     0.000000    -0.000000
   47     1.000000   180.000000     0.707107     0.000000    -0.707107     0.000000     0.000000    -0.000000
   48    -1.000000   180.000000     0.707107     0.000000    -0.707107     0.000000     0.000000    -0.000000
 
 Subroutine IBZKPT returns following result:
 ===========================================
 
 Found    220 irreducible k-points:
 
 Following reciprocal coordinates:
            Coordinates               Weight
  0.000000  0.000000  0.000000      1.000000
  0.055556  0.000000  0.000000      6.000000
  0.111111  0.000000  0.000000      6.000000
  0.166667  0.000000  0.000000      6.000000
  0.222222  0.000000  0.000000      6.000000
  0.277778  0.000000  0.000000      6.000000
  0.333333  0.000000  0.000000      6.000000
  0.388889  0.000000  0.000000      6.000000
  0.444444  0.000000  0.000000      6.000000
  0.500000  0.000000  0.000000      3.000000
  0.055556  0.055556  0.000000     12.000000
  0.111111  0.055556  0.000000     24.000000
  0.166667  0.055556  0.000000     24.000000
  0.222222  0.055556  0.000000     24.000000
  0.277778  0.055556  0.000000     24.000000
  0.333333  0.055556  0.000000     24.000000
  0.388889  0.055556  0.000000     24.000000
  0.444444  0.055556  0.000000     24.000000
  0.500000  0.055556  0.000000     12.000000
  0.111111  0.111111  0.000000     12.000000
  0.166667  0.111111  0.000000     24.000000
  0.222222  0.111111  0.000000     24.000000
  0.277778  0.111111  0.000000     24.000000
  0.333333  0.111111  0.000000     24.000000
  0.388889  0.111111  0.000000     24.000000
  0.444444  0.111111  0.000000     24.000000
  0.500000  0.111111  0.000000     12.000000
  0.166667  0.166667  0.000000     12.000000
  0.222222  0.166667  0.000000     24.000000
  0.277778  0.166667  0.000000     24.000000
  0.333333  0.166667  0.000000     24.000000
  0.388889  0.166667  0.000000     24.000000
  0.444444  0.166667  0.000000     24.000000
  0.500000  0.166667  0.000000     12.000000
  0.222222  0.222222  0.000000     12.000000
  0.277778  0.222222  0.000000     24.000000
  0.333333  0.222222  0.000000     24.000000
  0.388889  0.222222  0.000000     24.000000
  0.444444  0.222222  0.000000     24.000000
  0.500000  0.222222  0.000000     12.000000
  0.277778  0.277778  0.000000     12.000000
  0.333333  0.277778  0.000000     24.000000
  0.388889  0.277778  0.000000     24.000000
  0.444444  0.277778  0.000000     24.000000
  0.500000  0.277778  0.000000     12.000000
  0.333333  0.333333  0.000000     12.000000
  0.388889  0.333333  0.000000     24.000000
  0.444444  0.333333  0.000000     24.000000
  0.500000  0.333333  0.000000     12.000000
  0.388889  0.388889  0.000000     12.000000
  0.444444  0.388889  0.000000     24.000000
  0.500000  0.388889  0.000000     12.000000
  0.444444  0.444444  0.000000     12.000000
  0.500000  0.444444  0.000000     12.000000
  0.500000  0.500000  0.000000      3.000000
  0.055556  0.055556  0.055556      8.000000
  0.111111  0.055556  0.055556     24.000000
  0.166667  0.055556  0.055556     24.000000
  0.222222  0.055556  0.055556     24.000000
  0.277778  0.055556  0.055556     24.000000
  0.333333  0.055556  0.055556     24.000000
  0.388889  0.055556  0.055556     24.000000
  0.444444  0.055556  0.055556     24.000000
  0.500000  0.055556  0.055556     12.000000
  0.111111  0.111111  0.055556     24.000000
  0.166667  0.111111  0.055556     48.000000
  0.222222  0.111111  0.055556     48.000000
  0.277778  0.111111  0.055556     48.000000
  0.333333  0.111111  0.055556     48.000000
  0.388889  0.111111  0.055556     48.000000
  0.444444  0.111111  0.055556     48.000000
  0.500000  0.111111  0.055556     24.000000
  0.166667  0.166667  0.055556     24.000000
  0.222222  0.166667  0.055556     48.000000
  0.277778  0.166667  0.055556     48.000000
  0.333333  0.166667  0.055556     48.000000
  0.388889  0.166667  0.055556     48.000000
  0.444444  0.166667  0.055556     48.000000
  0.500000  0.166667  0.055556     24.000000
  0.222222  0.222222  0.055556     24.000000
  0.277778  0.222222  0.055556     48.000000
  0.333333  0.222222  0.055556     48.000000
  0.388889  0.222222  0.055556     48.000000
  0.444444  0.222222  0.055556     48.000000
  0.500000  0.222222  0.055556     24.000000
  0.277778  0.277778  0.055556     24.000000
  0.333333  0.277778  0.055556     48.000000
  0.388889  0.277778  0.055556     48.000000
  0.444444  0.277778  0.055556     48.000000
  0.500000  0.277778  0.055556     24.000000
  0.333333  0.333333  0.055556     24.000000
  0.388889  0.333333  0.055556     48.000000
  0.444444  0.333333  0.055556     48.000000
  0.500000  0.333333  0.055556     24.000000
  0.388889  0.388889  0.055556     24.000000
  0.444444  0.388889  0.055556     48.000000
  0.500000  0.388889  0.055556     24.000000
  0.444444  0.444444  0.055556     24.000000
  0.500000  0.444444  0.055556     24.000000
  0.500000  0.500000  0.055556      6.000000
  0.111111  0.111111  0.111111      8.000000
  0.166667  0.111111  0.111111     24.000000
  0.222222  0.111111  0.111111     24.000000
  0.277778  0.111111  0.111111     24.000000
  0.333333  0.111111  0.111111     24.000000
  0.388889  0.111111  0.111111     24.000000
  0.444444  0.111111  0.111111     24.000000
  0.500000  0.111111  0.111111     12.000000
  0.166667  0.166667  0.111111     24.000000
  0.222222  0.166667  0.111111     48.000000
  0.277778  0.166667  0.111111     48.000000
  0.333333  0.166667  0.111111     48.000000
  0.388889  0.166667  0.111111     48.000000
  0.444444  0.166667  0.111111     48.000000
  0.500000  0.166667  0.111111     24.000000
  0.222222  0.222222  0.111111     24.000000
  0.277778  0.222222  0.111111     48.000000
  0.333333  0.222222  0.111111     48.000000
  0.388889  0.222222  0.111111     48.000000
  0.444444  0.222222  0.111111     48.000000
  0.500000  0.222222  0.111111     24.000000
  0.277778  0.277778  0.111111     24.000000
  0.333333  0.277778  0.111111     48.000000
  0.388889  0.277778  0.111111     48.000000
  0.444444  0.277778  0.111111     48.000000
  0.500000  0.277778  0.111111     24.000000
  0.333333  0.333333  0.111111     24.000000
  0.388889  0.333333  0.111111     48.000000
  0.444444  0.333333  0.111111     48.000000
  0.500000  0.333333  0.111111     24.000000
  0.388889  0.388889  0.111111     24.000000
  0.444444  0.388889  0.111111     48.000000
  0.500000  0.388889  0.111111     24.000000
  0.444444  0.444444  0.111111     24.000000
  0.500000  0.444444  0.111111     24.000000
  0.500000  0.500000  0.111111      6.000000
  0.166667  0.166667  0.166667      8.000000
  0.222222  0.166667  0.166667     24.000000
  0.277778  0.166667  0.166667     24.000000
  0.333333  0.166667  0.166667     24.000000
  0.388889  0.166667  0.166667     24.000000
  0.444444  0.166667  0.166667     24.000000
  0.500000  0.166667  0.166667     12.000000
  0.222222  0.222222  0.166667     24.000000
  0.277778  0.222222  0.166667     48.000000
  0.333333  0.222222  0.166667     48.000000
  0.388889  0.222222  0.166667     48.000000
  0.444444  0.222222  0.166667     48.000000
  0.500000  0.222222  0.166667     24.000000
  0.277778  0.277778  0.166667     24.000000
  0.333333  0.277778  0.166667     48.000000
  0.388889  0.277778  0.166667     48.000000
  0.444444  0.277778  0.166667     48.000000
  0.500000  0.277778  0.166667     24.000000
  0.333333  0.333333  0.166667     24.000000
  0.388889  0.333333  0.166667     48.000000
  0.444444  0.333333  0.166667     48.000000
  0.500000  0.333333  0.166667     24.000000
  0.388889  0.388889  0.166667     24.000000
  0.444444  0.388889  0.166667     48.000000
  0.500000  0.388889  0.166667     24.000000
  0.444444  0.444444  0.166667     24.000000
  0.500000  0.444444  0.166667     24.000000
  0.500000  0.500000  0.166667      6.000000
  0.222222  0.222222  0.222222      8.000000
  0.277778  0.222222  0.222222     24.000000
  0.333333  0.222222  0.222222     24.000000
  0.388889  0.222222  0.222222     24.000000
  0.444444  0.222222  0.222222     24.000000
  0.500000  0.222222  0.222222     12.000000
  0.277778  0.277778  0.222222     24.000000
  0.333333  0.277778  0.222222     48.000000
  0.388889  0.277778  0.222222     48.000000
  0.444444  0.277778  0.222222     48.000000
  0.500000  0.277778  0.222222     24.000000
  0.333333  0.333333  0.222222     24.000000
  0.388889  0.333333  0.222222     48.000000
  0.444444  0.333333  0.222222     48.000000
  0.500000  0.333333  0.222222     24.000000
  0.388889  0.388889  0.222222     24.000000
  0.444444  0.388889  0.222222     48.000000
  0.500000  0.388889  0.222222     24.000000
  0.444444  0.444444  0.222222     24.000000
  0.500000  0.444444  0.222222     24.000000
  0.500000  0.500000  0.222222      6.000000
  0.277778  0.277778  0.277778      8.000000
  0.333333  0.277778  0.277778     24.000000
  0.388889  0.277778  0.277778     24.000000
  0.444444  0.277778  0.277778     24.000000
  0.500000  0.277778  0.277778     12.000000
  0.333333  0.333333  0.277778     24.000000
  0.388889  0.333333  0.277778     48.000000
  0.444444  0.333333  0.277778     48.000000
  0.500000  0.333333  0.277778     24.000000
  0.388889  0.388889  0.277778     24.000000
  0.444444  0.388889  0.277778     48.000000
  0.500000  0.388889  0.277778     24.000000
  0.444444  0.444444  0.277778     24.000000
  0.500000  0.444444  0.277778     24.000000
  0.500000  0.500000  0.277778      6.000000
  0.333333  0.333333  0.333333      8.000000
  0.388889  0.333333  0.333333     24.000000
  0.444444  0.333333  0.333333     24.000000
  0.500000  0.333333  0.333333     12.000000
  0.388889  0.388889  0.333333     24.000000
  0.444444  0.388889  0.333333     48.000000
  0.500000  0.388889  0.333333     24.000000
  0.444444  0.444444  0.333333     24.000000
  0.500000  0.444444  0.333333     24.000000
  0.500000  0.500000  0.333333      6.000000
  0.388889  0.388889  0.388889      8.000000
  0.444444  0.388889  0.388889     24.000000
  0.500000  0.388889  0.388889     12.000000
  0.444444  0.444444  0.388889     24.000000
  0.500000  0.444444  0.388889     24.000000
  0.500000  0.500000  0.388889      6.000000
  0.444444  0.444444  0.444444      8.000000
  0.500000  0.444444  0.444444     12.000000
  0.500000  0.500000  0.444444      6.000000
  0.500000  0.500000  0.500000      1.000000
 
 Following cartesian coordinates:
            Coordinates               Weight
  0.000000  0.000000  0.000000      1.000000
  0.055556  0.000000  0.000000      6.000000
  0.111111  0.000000  0.000000      6.000000
  0.166667  0.000000  0.000000      6.000000
  0.222222  0.000000  0.000000      6.000000
  0.277778  0.000000  0.000000      6.000000
  0.333333  0.000000  0.000000      6.000000
  0.388889  0.000000  0.000000      6.000000
  0.444444  0.000000  0.000000      6.000000
  0.500000  0.000000  0.000000      3.000000
  0.055556  0.055556  0.000000     12.000000
  0.111111  0.055556  0.000000     24.000000
  0.166667  0.055556  0.000000     24.000000
  0.222222  0.055556  0.000000     24.000000
  0.277778  0.055556  0.000000     24.000000
  0.333333  0.055556  0.000000     24.000000
  0.388889  0.055556  0.000000     24.000000
  0.444444  0.055556  0.000000     24.000000
  0.500000  0.055556  0.000000     12.000000
  0.111111  0.111111  0.000000     12.000000
  0.166667  0.111111  0.000000     24.000000
  0.222222  0.111111  0.000000     24.000000
  0.277778  0.111111  0.000000     24.000000
  0.333333  0.111111  0.000000     24.000000
  0.388889  0.111111  0.000000     24.000000
  0.444444  0.111111  0.000000     24.000000
  0.500000  0.111111  0.000000     12.000000
  0.166667  0.166667  0.000000     12.000000
  0.222222  0.166667  0.000000     24.000000
  0.277778  0.166667  0.000000     24.000000
  0.333333  0.166667  0.000000     24.000000
  0.388889  0.166667  0.000000     24.000000
  0.444444  0.166667  0.000000     24.000000
  0.500000  0.166667  0.000000     12.000000
  0.222222  0.222222  0.000000     12.000000
  0.277778  0.222222  0.000000     24.000000
  0.333333  0.222222  0.000000     24.000000
  0.388889  0.222222  0.000000     24.000000
  0.444444  0.222222  0.000000     24.000000
  0.500000  0.222222  0.000000     12.000000
  0.277778  0.277778  0.000000     12.000000
  0.333333  0.277778  0.000000     24.000000
  0.388889  0.277778  0.000000     24.000000
  0.444444  0.277778  0.000000     24.000000
  0.500000  0.277778  0.000000     12.000000
  0.333333  0.333333  0.000000     12.000000
  0.388889  0.333333  0.000000     24.000000
  0.444444  0.333333  0.000000     24.000000
  0.500000  0.333333  0.000000     12.000000
  0.388889  0.388889  0.000000     12.000000
  0.444444  0.388889  0.000000     24.000000
  0.500000  0.388889  0.000000     12.000000
  0.444444  0.444444  0.000000     12.000000
  0.500000  0.444444  0.000000     12.000000
  0.500000  0.500000  0.000000      3.000000
  0.055556  0.055556  0.055556      8.000000
  0.111111  0.055556  0.055556     24.000000
  0.166667  0.055556  0.055556     24.000000
  0.222222  0.055556  0.055556     24.000000
  0.277778  0.055556  0.055556     24.000000
  0.333333  0.055556  0.055556     24.000000
  0.388889  0.055556  0.055556     24.000000
  0.444444  0.055556  0.055556     24.000000
  0.500000  0.055556  0.055556     12.000000
  0.111111  0.111111  0.055556     24.000000
  0.166667  0.111111  0.055556     48.000000
  0.222222  0.111111  0.055556     48.000000
  0.277778  0.111111  0.055556     48.000000
  0.333333  0.111111  0.055556     48.000000
  0.388889  0.111111  0.055556     48.000000
  0.444444  0.111111  0.055556     48.000000
  0.500000  0.111111  0.055556     24.000000
  0.166667  0.166667  0.055556     24.000000
  0.222222  0.166667  0.055556     48.000000
  0.277778  0.166667  0.055556     48.000000
  0.333333  0.166667  0.055556     48.000000
  0.388889  0.166667  0.055556     48.000000
  0.444444  0.166667  0.055556     48.000000
  0.500000  0.166667  0.055556     24.000000
  0.222222  0.222222  0.055556     24.000000
  0.277778  0.222222  0.055556     48.000000
  0.333333  0.222222  0.055556     48.000000
  0.388889  0.222222  0.055556     48.000000
  0.444444  0.222222  0.055556     48.000000
  0.500000  0.222222  0.055556     24.000000
  0.277778  0.277778  0.055556     24.000000
  0.333333  0.277778  0.055556     48.000000
  0.388889  0.277778  0.055556     48.000000
  0.444444  0.277778  0.055556     48.000000
  0.500000  0.277778  0.055556     24.000000
  0.333333  0.333333  0.055556     24.000000
  0.388889  0.333333  0.055556     48.000000
  0.444444  0.333333  0.055556     48.000000
  0.500000  0.333333  0.055556     24.000000
  0.388889  0.388889  0.055556     24.000000
  0.444444  0.388889  0.055556     48.000000
  0.500000  0.388889  0.055556     24.000000
  0.444444  0.444444  0.055556     24.000000
  0.500000  0.444444  0.055556     24.000000
  0.500000  0.500000  0.055556      6.000000
  0.111111  0.111111  0.111111      8.000000
  0.166667  0.111111  0.111111     24.000000
  0.222222  0.111111  0.111111     24.000000
  0.277778  0.111111  0.111111     24.000000
  0.333333  0.111111  0.111111     24.000000
  0.388889  0.111111  0.111111     24.000000
  0.444444  0.111111  0.111111     24.000000
  0.500000  0.111111  0.111111     12.000000
  0.166667  0.166667  0.111111     24.000000
  0.222222  0.166667  0.111111     48.000000
  0.277778  0.166667  0.111111     48.000000
  0.333333  0.166667  0.111111     48.000000
  0.388889  0.166667  0.111111     48.000000
  0.444444  0.166667  0.111111     48.000000
  0.500000  0.166667  0.111111     24.000000
  0.222222  0.222222  0.111111     24.000000
  0.277778  0.222222  0.111111     48.000000
  0.333333  0.222222  0.111111     48.000000
  0.388889  0.222222  0.111111     48.000000
  0.444444  0.222222  0.111111     48.000000
  0.500000  0.222222  0.111111     24.000000
  0.277778  0.277778  0.111111     24.000000
  0.333333  0.277778  0.111111     48.000000
  0.388889  0.277778  0.111111     48.000000
  0.444444  0.277778  0.111111     48.000000
  0.500000  0.277778  0.111111     24.000000
  0.333333  0.333333  0.111111     24.000000
  0.388889  0.333333  0.111111     48.000000
  0.444444  0.333333  0.111111     48.000000
  0.500000  0.333333  0.111111     24.000000
  0.388889  0.388889  0.111111     24.000000
  0.444444  0.388889  0.111111     48.000000
  0.500000  0.388889  0.111111     24.000000
  0.444444  0.444444  0.111111     24.000000
  0.500000  0.444444  0.111111     24.000000
  0.500000  0.500000  0.111111      6.000000
  0.166667  0.166667  0.166667      8.000000
  0.222222  0.166667  0.166667     24.000000
  0.277778  0.166667  0.166667     24.000000
  0.333333  0.166667  0.166667     24.000000
  0.388889  0.166667  0.166667     24.000000
  0.444444  0.166667  0.166667     24.000000
  0.500000  0.166667  0.166667     12.000000
  0.222222  0.222222  0.166667     24.000000
  0.277778  0.222222  0.166667     48.000000
  0.333333  0.222222  0.166667     48.000000
  0.388889  0.222222  0.166667     48.000000
  0.444444  0.222222  0.166667     48.000000
  0.500000  0.222222  0.166667     24.000000
  0.277778  0.277778  0.166667     24.000000
  0.333333  0.277778  0.166667     48.000000
  0.388889  0.277778  0.166667     48.000000
  0.444444  0.277778  0.166667     48.000000
  0.500000  0.277778  0.166667     24.000000
  0.333333  0.333333  0.166667     24.000000
  0.388889  0.333333  0.166667     48.000000
  0.444444  0.333333  0.166667     48.000000
  0.500000  0.333333  0.166667     24.000000
  0.388889  0.388889  0.166667     24.000000
  0.444444  0.388889  0.166667     48.000000
  0.500000  0.388889  0.166667     24.000000
  0.444444  0.444444  0.166667     24.000000
  0.500000  0.444444  0.166667     24.000000
  0.500000  0.500000  0.166667      6.000000
  0.222222  0.222222  0.222222      8.000000
  0.277778  0.222222  0.222222     24.000000
  0.333333  0.222222  0.222222     24.000000
  0.388889  0.222222  0.222222     24.000000
  0.444444  0.222222  0.222222     24.000000
  0.500000  0.222222  0.222222     12.000000
  0.277778  0.277778  0.222222     24.000000
  0.333333  0.277778  0.222222     48.000000
  0.388889  0.277778  0.222222     48.000000
  0.444444  0.277778  0.222222     48.000000
  0.500000  0.277778  0.222222     24.000000
  0.333333  0.333333  0.222222     24.000000
  0.388889  0.333333  0.222222     48.000000
  0.444444  0.333333  0.222222     48.000000
  0.500000  0.333333  0.222222     24.000000
  0.388889  0.388889  0.222222     24.000000
  0.444444  0.388889  0.222222     48.000000
  0.500000  0.388889  0.222222     24.000000
  0.444444  0.444444  0.222222     24.000000
  0.500000  0.444444  0.222222     24.000000
  0.500000  0.500000  0.222222      6.000000
  0.277778  0.277778  0.277778      8.000000
  0.333333  0.277778  0.277778     24.000000
  0.388889  0.277778  0.277778     24.000000
  0.444444  0.277778  0.277778     24.000000
  0.500000  0.277778  0.277778     12.000000
  0.333333  0.333333  0.277778     24.000000
  0.388889  0.333333  0.277778     48.000000
  0.444444  0.333333  0.277778     48.000000
  0.500000  0.333333  0.277778     24.000000
  0.388889  0.388889  0.277778     24.000000
  0.444444  0.388889  0.277778     48.000000
  0.500000  0.388889  0.277778     24.000000
  0.444444  0.444444  0.277778     24.000000
  0.500000  0.444444  0.277778     24.000000
  0.500000  0.500000  0.277778      6.000000
  0.333333  0.333333  0.333333      8.000000
  0.388889  0.333333  0.333333     24.000000
  0.444444  0.333333  0.333333     24.000000
  0.500000  0.333333  0.333333     12.000000
  0.388889  0.388889  0.333333     24.000000
  0.444444  0.388889  0.333333     48.000000
  0.500000  0.388889  0.333333     24.000000
  0.444444  0.444444  0.333333     24.000000
  0.500000  0.444444  0.333333     24.000000
  0.500000  0.500000  0.333333      6.000000
  0.388889  0.388889  0.388889      8.000000
  0.444444  0.388889  0.388889     24.000000
  0.500000  0.388889  0.388889     12.000000
  0.444444  0.444444  0.388889     24.000000
  0.500000  0.444444  0.388889     24.000000
  0.500000  0.500000  0.388889      6.000000
  0.444444  0.444444  0.444444      8.000000
  0.500000  0.444444  0.444444     12.000000
  0.500000  0.500000  0.444444      6.000000
  0.500000  0.500000  0.500000      1.000000
 


--------------------------------------------------------------------------------------------------------




 Dimension of arrays:
   k-points           NKPTS =    220   k-points in BZ     NKDIM =    220   number of bands    NBANDS=     30
   number of dos      NEDOS =    301   number of ions     NIONS =      4
   non local maximal  LDIM  =      6   non local SUM 2l+1 LMDIM =     18
   total plane-waves  NPLWV =  21952
   max r-space proj   IRMAX =      1   max aug-charges    IRDMAX=  14766
   dimension x,y,z NGX =    28 NGY =   28 NGZ =   28
   dimension x,y,z NGXF=    56 NGYF=   56 NGZF=   56
   support grid    NGXF=    56 NGYF=   56 NGZF=   56
   ions per type =               4
 NGX,Y,Z   is equivalent  to a cutoff of  11.08, 11.08, 11.08 a.u.
 NGXF,Y,Z  is equivalent  to a cutoff of  22.17, 22.17, 22.17 a.u.


 I would recommend the setting:
   dimension x,y,z NGX =    27 NGY =   27 NGZ =   27
 SYSTEM =  Ag  ! pas utilise                       
 POSCAR =  Ag bulk PBEsol                          

 Startparameter for this run:
   NWRITE =      2    write-flag & timer
   PREC   = accura    normal or accurate (medium, high low for compatibility)
   ISTART =      0    job   : 0-new  1-cont  2-samecut
   ICHARG =      2    charge: 1-file 2-atom 10-const
   ISPIN  =      1    spin polarized calculation?
   LNONCOLLINEAR =      F non collinear calculations
   LSORBIT =      F    spin-orbit coupling
   INIWAV =      1    electr: 0-lowe 1-rand  2-diag
   LASPH  =      F    aspherical Exc in radial PAW
   METAGGA=      F    non-selfconsistent MetaGGA calc.

 Electronic Relaxation 1
   ENCUT  =  400.0 eV  29.40 Ry    5.42 a.u.   6.85  6.85  6.85*2*pi/ulx,y,z
   ENINI  =  400.0     initial cutoff
   ENAUG  =  412.5 eV  augmentation charge cutoff
   NELM   =    200;   NELMIN=  2; NELMDL= -5     # of ELM steps 
   EDIFF  = 0.1E-05   stopping-criterion for ELM
   LREAL  =      F    real-space projection
   NLSPLINE    = F    spline interpolate recip. space projectors
   LCOMPAT=      F    compatible to vasp.4.4
   GGA_COMPAT  = T    GGA compatible to vasp.4.4-vasp.4.6
   LMAXPAW     = -100 max onsite density
   LMAXMIX     =    2 max onsite mixed and CHGCAR
   VOSKOWN=      0    Vosko Wilk Nusair interpolation
   ROPT   =    0.00000
 Ionic relaxation
   EDIFFG = 0.1E-04   stopping-criterion for IOM
   NSW    =      0    number of steps for IOM
   NBLOCK =      1;   KBLOCK =      1    inner block; outer block 
   IBRION =     -1    ionic relax: 0-MD 1-quasi-New 2-CG
   NFREE  =      0    steps in history (QN), initial steepest desc. (CG)
   ISIF   =      2    stress and relaxation
   IWAVPR =     10    prediction:  0-non 1-charg 2-wave 3-comb
   ISYM   =      2    0-nonsym 1-usesym 2-fastsym
   LCORR  =      T    Harris-Foulkes like correction to forces

   POTIM  = 0.5000    time-step for ionic-motion
   TEIN   =    0.0    initial temperature
   TEBEG  =    0.0;   TEEND  =   0.0 temperature during run
   SMASS  =  -3.00    Nose mass-parameter (am)
   estimated Nose-frequenzy (Omega)   =  0.10E-29 period in steps =****** mass=  -0.403E-27a.u.
   SCALEE = 1.0000    scale energy and forces
   NPACO  =    256;   APACO  = 16.0  distance and # of slots for P.C.
   PSTRESS=    0.0 pullay stress

  Mass of Ions in am
   POMASS = 107.87
  Ionic Valenz
   ZVAL   =  11.00
  Atomic Wigner-Seitz radii
   RWIGS  =  -1.00
  virtual crystal weights 
   VCA    =   1.00
   NELECT =      44.0000    total number of electrons
   NUPDOWN=      -1.0000    fix difference up-down

 DOS related values:
   EMIN   =  10.00;   EMAX   =-10.00  energy-range for DOS
   EFERMI =   0.00
   ISMEAR =     1;   SIGMA  =   0.10  broadening in eV -4-tet -1-fermi 0-gaus

 Electronic relaxation 2 (details)
   IALGO  =     68    algorithm
   LDIAG  =      T    sub-space diagonalisation (order eigenvalues)
   LSUBROT=      T    optimize rotation matrix (better conditioning)
   TURBO    =      0    0=normal 1=particle mesh
   IRESTART =      0    0=no restart 2=restart with 2 vectors
   NREBOOT  =      0    no. of reboots
   NMIN     =      0    reboot dimension
   EREF     =   0.00    reference energy to select bands
   IMIX   =      4    mixing-type and parameters
     AMIX     =   0.40;   BMIX     =  1.00
     AMIX_MAG =   1.60;   BMIX_MAG =  1.00
     AMIN     =   0.10
     WC   =   100.;   INIMIX=   1;  MIXPRE=   1;  MAXMIX= -45

 Intra band minimization:
   WEIMIN = 0.0000     energy-eigenvalue tresh-hold
   EBREAK =  0.83E-08  absolut break condition
   DEPER  =   0.30     relativ break condition  

   TIME   =   0.40     timestep for ELM

  volume/ion in A,a.u.               =      18.52       124.99
  Fermi-wavevector in a.u.,A,eV,Ry     =   1.376078  2.600411 25.763871  1.893591
  Thomas-Fermi vector in A             =   2.501356
 
 Write flags
   LWAVE  =      F    write WAVECAR
   LCHARG =      F    write CHGCAR
   LVTOT  =      F    write LOCPOT, total local potential
   LVHAR  =      F    write LOCPOT, Hartree potential only
   LELF   =      F    write electronic localiz. function (ELF)
   LORBIT =      0    0 simple, 1 ext, 2 COOP (PROOUT)


 Dipole corrections
   LMONO  =      F    monopole corrections only (constant potential shift)
   LDIPOL =      F    correct potential (dipole corrections)
   IDIPOL =      0    1-x, 2-y, 3-z, 4-all directions 
   EPSILON=  1.0000000 bulk dielectric constant

 Exchange correlation treatment:
   GGA     =    --    GGA type
   LEXCH   =     8    internal setting for exchange type
   VOSKOWN=      0    Vosko Wilk Nusair interpolation
   LHFCALC =     F    Hartree Fock is set to
   LHFONE  =     F    Hartree Fock one center treatment
   AEXX    =    0.0000 exact exchange contribution

 Linear response parameters
   LEPSILON=     F    determine dielectric tensor
   LRPA    =     F    only Hartree local field effects (RPA)
   LNABLA  =     F    use nabla operator in PAW spheres
   LVEL    =     F    velocity operator in full k-point grid
   LINTERFAST=   F  fast interpolation
   KINTER  =     0    interpolate to denser k-point grid
   CSHIFT  =0.1000    complex shift for real part using Kramers Kronig
   OMEGAMAX=  -1.0    maximum frequency
   DEG_THRESHOLD= 0.2000000E-02 threshold for treating states as degnerate
   RTIME   =    0.100 relaxation time in fs

 Orbital magnetization related:
   ORBITALMAG=     F  switch on orbital magnetization
   LCHIMAG   =     F  perturbation theory with respect to B field
   DQ        =  0.001000  dq finite difference perturbation B field



--------------------------------------------------------------------------------------------------------


 Static calculation
 charge density and potential will be updated during run
 non-spin polarized calculation
 RMM-DIIS sequential band-by-band and
  variant of blocked Davidson during initial phase
 perform sub-space diagonalisation
    before iterative eigenvector-optimisation
 modified Broyden-mixing scheme, WC =      100.0
 initial mixing is a Kerker type mixing with AMIX =  0.4000 and BMIX =      1.0000
 Hartree-type preconditioning will be used
 using additional bands            8
 reciprocal scheme for non local part
 use partial core corrections
 calculate Harris-corrections to forces 
   (improved forces if not selfconsistent)
 use gradient corrections 
 use of overlap-Matrix (Vanderbilt PP)
 Methfessel and Paxton  Order N= 1 SIGMA  =   0.10


--------------------------------------------------------------------------------------------------------


  energy-cutoff  :      400.00
  volume of cell :       74.09
      direct lattice vectors                 reciprocal lattice vectors
     4.200000000  0.000000000  0.000000000     0.238095238  0.000000000  0.000000000
     0.000000000  4.200000000  0.000000000     0.000000000  0.238095238  0.000000000
     0.000000000  0.000000000  4.200000000     0.000000000  0.000000000  0.238095238

  length of vectors
     4.200000000  4.200000000  4.200000000     0.238095238  0.238095238  0.238095238


 
 k-points in units of 2pi/SCALE and weight: Automatic mesh                          
   0.00000000  0.00000000  0.00000000       0.000
   0.05555556  0.00000000  0.00000000       0.001
   0.11111111  0.00000000  0.00000000       0.001
   0.16666667  0.00000000  0.00000000       0.001
   0.22222222  0.00000000  0.00000000       0.001
   0.27777778  0.00000000  0.00000000       0.001
   0.33333333  0.00000000  0.00000000       0.001
   0.38888889  0.00000000  0.00000000       0.001
   0.44444444  0.00000000  0.00000000       0.001
   0.50000000  0.00000000  0.00000000       0.001
   0.05555556  0.05555556  0.00000000       0.002
   0.11111111  0.05555556  0.00000000       0.004
   0.16666667  0.05555556  0.00000000       0.004
   0.22222222  0.05555556  0.00000000       0.004
   0.27777778  0.05555556  0.00000000       0.004
   0.33333333  0.05555556  0.00000000       0.004
   0.38888889  0.05555556  0.00000000       0.004
   0.44444444  0.05555556  0.00000000       0.004
   0.50000000  0.05555556  0.00000000       0.002
   0.11111111  0.11111111  0.00000000       0.002
   0.16666667  0.11111111  0.00000000       0.004
   0.22222222  0.11111111  0.00000000       0.004
   0.27777778  0.11111111  0.00000000       0.004
   0.33333333  0.11111111  0.00000000       0.004
   0.38888889  0.11111111  0.00000000       0.004
   0.44444444  0.11111111  0.00000000       0.004
   0.50000000  0.11111111  0.00000000       0.002
   0.16666667  0.16666667  0.00000000       0.002
   0.22222222  0.16666667  0.00000000       0.004
   0.27777778  0.16666667  0.00000000       0.004
   0.33333333  0.16666667  0.00000000       0.004
   0.38888889  0.16666667  0.00000000       0.004
   0.44444444  0.16666667  0.00000000       0.004
   0.50000000  0.16666667  0.00000000       0.002
   0.22222222  0.22222222  0.00000000       0.002
   0.27777778  0.22222222  0.00000000       0.004
   0.33333333  0.22222222  0.00000000       0.004
   0.38888889  0.22222222  0.00000000       0.004
   0.44444444  0.22222222  0.00000000       0.004
   0.50000000  0.22222222  0.00000000       0.002
   0.27777778  0.27777778  0.00000000       0.002
   0.33333333  0.27777778  0.00000000       0.004
   0.38888889  0.27777778  0.00000000       0.004
   0.44444444  0.27777778  0.00000000       0.004
   0.50000000  0.27777778  0.00000000       0.002
   0.33333333  0.33333333  0.00000000       0.002
   0.38888889  0.33333333  0.00000000       0.004
   0.44444444  0.33333333  0.00000000       0.004
   0.50000000  0.33333333  0.00000000       0.002
   0.38888889  0.38888889  0.00000000       0.002
   0.44444444  0.38888889  0.00000000       0.004
   0.50000000  0.38888889  0.00000000       0.002
   0.44444444  0.44444444  0.00000000       0.002
   0.50000000  0.44444444  0.00000000       0.002
   0.50000000  0.50000000  0.00000000       0.001
   0.05555556  0.05555556  0.05555556       0.001
   0.11111111  0.05555556  0.05555556       0.004
   0.16666667  0.05555556  0.05555556       0.004
   0.22222222  0.05555556  0.05555556       0.004
   0.27777778  0.05555556  0.05555556       0.004
   0.33333333  0.05555556  0.05555556       0.004
   0.38888889  0.05555556  0.05555556       0.004
   0.44444444  0.05555556  0.05555556       0.004
   0.50000000  0.05555556  0.05555556       0.002
   0.11111111  0.11111111  0.05555556       0.004
   0.16666667  0.11111111  0.05555556       0.008
   0.22222222  0.11111111  0.05555556       0.008
   0.27777778  0.11111111  0.05555556       0.008
   0.33333333  0.11111111  0.05555556       0.008
   0.38888889  0.11111111  0.05555556       0.008
   0.44444444  0.11111111  0.05555556       0.008
   0.50000000  0.11111111  0.05555556       0.004
   0.16666667  0.16666667  0.05555556       0.004
   0.22222222  0.16666667  0.05555556       0.008
   0.27777778  0.16666667  0.05555556       0.008
   0.33333333  0.16666667  0.05555556       0.008
   0.38888889  0.16666667  0.05555556       0.008
   0.44444444  0.16666667  0.05555556       0.008
   0.50000000  0.16666667  0.05555556       0.004
   0.22222222  0.22222222  0.05555556       0.004
   0.27777778  0.22222222  0.05555556       0.008
   0.33333333  0.22222222  0.05555556       0.008
   0.38888889  0.22222222  0.05555556       0.008
   0.44444444  0.22222222  0.05555556       0.008
   0.50000000  0.22222222  0.05555556       0.004
   0.27777778  0.27777778  0.05555556       0.004
   0.33333333  0.27777778  0.05555556       0.008
   0.38888889  0.27777778  0.05555556       0.008
   0.44444444  0.27777778  0.05555556       0.008
   0.50000000  0.27777778  0.05555556       0.004
   0.33333333  0.33333333  0.05555556       0.004
   0.38888889  0.33333333  0.05555556       0.008
   0.44444444  0.33333333  0.05555556       0.008
   0.50000000  0.33333333  0.05555556       0.004
   0.38888889  0.38888889  0.05555556       0.004
   0.44444444  0.38888889  0.05555556       0.008
   0.50000000  0.38888889  0.05555556       0.004
   0.44444444  0.44444444  0.05555556       0.004
   0.50000000  0.44444444  0.05555556       0.004
   0.50000000  0.50000000  0.05555556       0.001
   0.11111111  0.11111111  0.11111111       0.001
   0.16666667  0.11111111  0.11111111       0.004
   0.22222222  0.11111111  0.11111111       0.004
   0.27777778  0.11111111  0.11111111       0.004
   0.33333333  0.11111111  0.11111111       0.004
   0.38888889  0.11111111  0.11111111       0.004
   0.44444444  0.11111111  0.11111111       0.004
   0.50000000  0.11111111  0.11111111       0.002
   0.16666667  0.16666667  0.11111111       0.004
   0.22222222  0.16666667  0.11111111       0.008
[...]
     19      -0.1413      2.00000
     20      -0.1413      2.00000
     21       0.8579      2.00000
     22       3.0745     -0.00749
     23       3.0745     -0.00749
     24       3.0745     -0.00749
     25       6.5005      0.00000
     26       6.5005      0.00000
     27       6.5005      0.00000
     28       8.3863      0.00000
     29      17.3778      0.00000
     30      17.3778      0.00000

 k-point 212 :       0.4444    0.3889    0.3889
  band No.  band energies     occupation 
      1      -3.0521      2.00000
      2      -2.9883      2.00000
      3      -2.9580      2.00000
      4      -2.9580      2.00000
      5      -1.8380      2.00000
      6      -1.8380      2.00000
      7      -1.8007      2.00000
      8      -1.7197      2.00000
      9      -1.6961      2.00000
     10      -1.6412      2.00000
     11      -1.6212      2.00000
     12      -1.6212      2.00000
     13      -0.5844      2.00000
     14      -0.5844      2.00000
     15      -0.5641      2.00000
     16      -0.3445      2.00000
     17      -0.2320      2.00000
     18      -0.1575      2.00000
     19      -0.1575      2.00000
     20      -0.1474      2.00000
     21       1.3103      2.00000
     22       2.4481      2.00000
     23       3.2045     -0.00001
     24       3.2045     -0.00001
     25       6.1708      0.00000
     26       6.1708      0.00000
     27       6.8639      0.00000
     28       7.8168      0.00000
     29      17.5984      0.00000
     30      17.5991      0.00000

 k-point 213 :       0.5000    0.3889    0.3889
  band No.  band energies     occupation 
      1      -3.0320      2.00000
      2      -3.0320      2.00000
      3      -2.9695      2.00000
      4      -2.9695      2.00000
      5      -1.8332      2.00000
      6      -1.8332      2.00000
      7      -1.7560      2.00000
      8      -1.7560      2.00000
      9      -1.6786      2.00000
     10      -1.6786      2.00000
     11      -1.6338      2.00000
     12      -1.6338      2.00000
     13      -0.5370      2.00000
     14      -0.5370      2.00000
     15      -0.4401      2.00000
     16      -0.4401      2.00000
     17      -0.1779      2.00000
     18      -0.1779      2.00000
     19      -0.1698      2.00000
     20      -0.1698      2.00000
     21       1.8517      2.00000
     22       1.8517      2.00000
     23       3.2560     -0.00000
     24       3.2560     -0.00000
     25       6.0523      0.00000
     26       6.0523      0.00000
     27       7.3072      0.00000
     28       7.3072      0.00000
     29      17.7272      0.00000
     30      17.7274      0.00000

 k-point 214 :       0.4444    0.4444    0.3889
  band No.  band energies     occupation 
      1      -3.0676      2.00000
      2      -3.0192      2.00000
      3      -3.0192      2.00000
      4      -3.0037      2.00000
      5      -1.8116      2.00000
      6      -1.7938      2.00000
      7      -1.7938      2.00000
      8      -1.7272      2.00000
      9      -1.7170      2.00000
     10      -1.6729      2.00000
     11      -1.6729      2.00000
     12      -1.6637      2.00000
     13      -0.4549      2.00000
     14      -0.4408      2.00000
     15      -0.4408      2.00000
     16      -0.2515      2.00000
     17      -0.2449      2.00000
     18      -0.1655      2.00000
     19      -0.1592      2.00000
     20      -0.1592      2.00000
     21       1.6951      2.00000
     22       2.6867      2.04037
     23       2.6867      2.04037
     24       3.1137     -0.00141
     25       6.0360      0.00000
     26       6.4264      0.00000
     27       6.4264      0.00000
     28       7.2733      0.00000
     29      17.8205      0.00000
     30      18.1354      0.00000

 k-point 215 :       0.5000    0.4444    0.3889
  band No.  band energies     occupation 
      1      -3.0562      2.00000
      2      -3.0562      2.00000
      3      -3.0243      2.00000
      4      -3.0243      2.00000
      5      -1.7961      2.00000
      6      -1.7961      2.00000
      7      -1.7559      2.00000
      8      -1.7559      2.00000
      9      -1.7054      2.00000
     10      -1.7054      2.00000
     11      -1.6817      2.00000
     12      -1.6817      2.00000
     13      -0.3948      2.00000
     14      -0.3948      2.00000
     15      -0.3239      2.00000
     16      -0.3239      2.00000
     17      -0.1889      2.00000
     18      -0.1889      2.00000
     19      -0.1759      2.00000
     20      -0.1759      2.00000
     21       2.1675      2.00000
     22       2.1675      2.00000
     23       2.9255      0.06280
     24       2.9255      0.06280
     25       6.1345      0.00000
     26       6.1345      0.00000
     27       6.8047      0.00000
     28       6.8047      0.00000
     29      18.0212      0.00000
     30      18.0320      0.00000

 k-point 216 :       0.5000    0.5000    0.3889
  band No.  band energies     occupation 
      1      -3.0535      2.00000
      2      -3.0535      2.00000
      3      -3.0535      2.00000
      4      -3.0535      2.00000
      5      -1.7678      2.00000
      6      -1.7678      2.00000
      7      -1.7678      2.00000
      8      -1.7678      2.00000
      9      -1.7080      2.00000
     10      -1.7080      2.00000
     11      -1.7080      2.00000
     12      -1.7080      2.00000
     13      -0.2982      2.00000
     14      -0.2982      2.00000
     15      -0.2982      2.00000
     16      -0.2982      2.00000
     17      -0.2032      2.00000
     18      -0.2032      2.00000
     19      -0.2032      2.00000
     20      -0.2032      2.00000
     21       2.5405      2.00009
     22       2.5405      2.00009
     23       2.5405      2.00009
     24       2.5405      2.00009
     25       6.4032      0.00000
     26       6.4032      0.00000
     27       6.4032      0.00000
     28       6.4032      0.00000
     29      18.2177      0.00000
     30      18.2177      0.00000

 k-point 217 :       0.4444    0.4444    0.4444
  band No.  band energies     occupation 
      1      -3.0931      2.00000
      2      -3.0603      2.00000
      3      -3.0603      2.00000
      4      -3.0603      2.00000
      5      -1.7779      2.00000
      6      -1.7779      2.00000
      7      -1.7779      2.00000
      8      -1.7347      2.00000
      9      -1.7347      2.00000
     10      -1.7077      2.00000
     11      -1.7077      2.00000
     12      -1.7077      2.00000
     13      -0.3178      2.00000
     14      -0.3178      2.00000
     15      -0.3178      2.00000
     16      -0.1931      2.00000
     17      -0.1931      2.00000
     18      -0.1493      2.00000
     19      -0.1493      2.00000
     20      -0.1493      2.00000
     21       2.0015      2.00000
     22       2.7703      1.99300
     23       2.7703      1.99300
     24       2.7703      1.99300
     25       6.1150      0.00000
     26       6.1150      0.00000
     27       6.1150      0.00000
     28       6.7744      0.00000
     29      18.2767      0.00000
     30      18.3639      0.00000

 k-point 218 :       0.5000    0.4444    0.4444
  band No.  band energies     occupation 
      1      -3.0905      2.00000
      2      -3.0905      2.00000
      3      -3.0741      2.00000
      4      -3.0741      2.00000
      5      -1.7712      2.00000
      6      -1.7712      2.00000
      7      -1.7518      2.00000
      8      -1.7518      2.00000
      9      -1.7316      2.00000
     10      -1.7316      2.00000
     11      -1.7206      2.00000
     12      -1.7206      2.00000
     13      -0.2649      2.00000
     14      -0.2649      2.00000
     15      -0.2244      2.00000
     16      -0.2244      2.00000
     17      -0.1586      2.00000
     18      -0.1586      2.00000
     19      -0.1567      2.00000
     20      -0.1567      2.00000
     21       2.3769      2.00000
     22       2.3769      2.00000
     23       2.8032      1.73774
     24       2.8032      1.73774
     25       6.0051      0.00000
     26       6.0051      0.00000
     27       6.3781      0.00000
     28       6.3781      0.00000
     29      18.3158      0.00000
     30      18.4132      0.00000

 k-point 219 :       0.5000    0.5000    0.4444
  band No.  band energies     occupation 
      1      -3.0963      2.00000
      2      -3.0963      2.00000
      3      -3.0963      2.00000
      4      -3.0963      2.00000
      5      -1.7543      2.00000
      6      -1.7543      2.00000
      7      -1.7543      2.00000
      8      -1.7543      2.00000
      9      -1.7392      2.00000
     10      -1.7392      2.00000
     11      -1.7392      2.00000
     12      -1.7392      2.00000
     13      -0.1897      2.00000
     14      -0.1897      2.00000
     15      -0.1897      2.00000
     16      -0.1897      2.00000
     17      -0.1650      2.00000
     18      -0.1650      2.00000
     19      -0.1650      2.00000
     20      -0.1650      2.00000
     21       2.6048      2.00252
     22       2.6048      2.00252
     23       2.6048      2.00252
     24       2.6048      2.00252
     25       6.0977      0.00000
     26       6.0977      0.00000
     27       6.0977      0.00000
     28       6.0977      0.00000
     29      18.4076      0.00000
     30      18.4076      0.00000

 k-point 220 :       0.5000    0.5000    0.5000
  band No.  band energies     occupation 
      1      -3.1108      2.00000
      2      -3.1108      2.00000
      3      -3.1108      2.00000
      4      -3.1108      2.00000
      5      -1.7498      2.00000
      6      -1.7498      2.00000
      7      -1.7498      2.00000
      8      -1.7498      2.00000
      9      -1.7498      2.00000
     10      -1.7498      2.00000
     11      -1.7498      2.00000
     12      -1.7498      2.00000
     13      -0.1521      2.00000
     14      -0.1521      2.00000
     15      -0.1521      2.00000
     16      -0.1521      2.00000
     17      -0.1521      2.00000
     18      -0.1521      2.00000
     19      -0.1521      2.00000
     20      -0.1521      2.00000
     21       2.6302      2.00716
     22       2.6302      2.00716
     23       2.6302      2.00716
     24       2.6302      2.00716
     25       5.9904      0.00000
     26       5.9904      0.00000
     27       5.9904      0.00000
     28       5.9904      0.00000
     29      18.4380      0.00000
     30      18.4380      0.00000


--------------------------------------------------------------------------------------------------------


 soft charge-density along one line, spin component           1
         0         1         2         3         4         5         6         7         8         9
 total charge-density along one line
 
 pseudopotential strength for first ion, spin component:           1
-12.264  -0.000  -0.000  -0.000   0.000   0.148   0.000   0.000
 -0.000 -12.264  -0.000   0.000   0.000   0.000   0.148   0.000
 -0.000  -0.000 -12.255  -0.000   0.000   0.000   0.000   0.147
 -0.000   0.000  -0.000 -12.264  -0.000   0.000  -0.000   0.000
  0.000   0.000   0.000  -0.000 -12.255  -0.000  -0.000  -0.000
  0.148   0.000   0.000   0.000  -0.000   0.454  -0.000  -0.000
  0.000   0.148   0.000  -0.000  -0.000  -0.000   0.454  -0.000
  0.000   0.000   0.147   0.000  -0.000  -0.000  -0.000   0.454
  0.000  -0.000   0.000   0.148   0.000  -0.000   0.000  -0.000
 -0.000  -0.000  -0.000   0.000   0.147   0.000   0.000   0.000
 -0.000   0.000  -0.000   0.000   0.000   0.000  -0.000   0.000
  0.000  -0.000   0.000  -0.000  -0.000  -0.000   0.000  -0.000
  0.000   0.000  -0.000  -0.000  -0.000  -0.000  -0.000   0.000
 -0.000   0.000   0.000   0.000   0.000   0.000  -0.000  -0.000
  0.000  -0.000  -0.000   0.000   0.000  -0.000   0.000   0.000
 -0.000  -0.000   0.000   0.000   0.000   0.000   0.000  -0.000
  0.000  -0.000  -0.000  -0.000  -0.000  -0.000   0.000   0.000
 -0.000   0.000   0.000  -0.000  -0.000   0.000  -0.000  -0.000
 total augmentation occupancy for first ion, spin component:           1
  1.941   0.000   0.000  -0.000  -0.000  -0.030  -0.000   0.000  -0.000  -0.000  -0.000   0.000  -0.000  -0.000   0.000  -0.000
  0.000   1.941   0.000  -0.000  -0.000  -0.000  -0.030  -0.000  -0.000  -0.000   0.000   0.000  -0.000   0.000   0.000  -0.000
 -0.000  -0.000   1.962   0.000   0.000   0.000  -0.000  -0.055  -0.000   0.000  -0.000  -0.000   0.000  -0.000   0.000  -0.000
  0.000  -0.000  -0.000   1.941   0.000  -0.000  -0.000  -0.000  -0.030   0.000   0.000  -0.000   0.000  -0.000  -0.000  -0.000
  0.000   0.000  -0.000  -0.000   1.962   0.000  -0.000  -0.000   0.000  -0.055   0.000  -0.000  -0.000   0.000   0.000  -0.000
 -0.030  -0.000  -0.000   0.000   0.000   0.071  -0.000  -0.000   0.000  -0.000   0.000   0.000   0.000   0.000  -0.000  -0.000
  0.000  -0.030  -0.000  -0.000  -0.000   0.000   0.071   0.000   0.000   0.000  -0.000   0.000  -0.000   0.000   0.000  -0.000
 -0.000  -0.000  -0.055  -0.000  -0.000  -0.000   0.000   0.059   0.000   0.000   0.000  -0.000   0.000   0.000   0.000   0.000
 -0.000  -0.000  -0.000  -0.030  -0.000   0.000   0.000   0.000   0.071  -0.000  -0.000   0.000   0.000  -0.000  -0.000  -0.000
 -0.000  -0.000  -0.000  -0.000  -0.055  -0.000   0.000   0.000   0.000   0.059   0.000   0.000   0.000   0.000   0.000   0.000
 -0.000  -0.000  -0.000   0.000   0.000   0.000  -0.000   0.000  -0.000  -0.000   1.015  -0.333   0.000   0.000   0.000   0.000
  0.000  -0.000  -0.000  -0.000   0.000  -0.000   0.000  -0.000   0.000  -0.000  -0.333   0.167   0.000   0.000   0.000   0.000
 -0.000  -0.000   0.000   0.000  -0.000   0.000  -0.000   0.000   0.000   0.000   0.000   0.000   0.102   0.000   0.000  -0.006
 -0.000   0.000   0.000  -0.000   0.000   0.000   0.000   0.000  -0.000   0.000   0.000   0.000   0.000   0.102  -0.000   0.000
  0.000   0.000  -0.000  -0.000   0.000  -0.000   0.000   0.000  -0.000   0.000   0.000   0.000   0.000  -0.000   0.102   0.000
 -0.000  -0.000   0.000  -0.000   0.000  -0.000  -0.000   0.000  -0.000   0.000   0.000   0.000  -0.006   0.000   0.000   0.000
 -0.000   0.000  -0.000   0.000   0.000   0.000   0.000  -0.000  -0.000  -0.000   0.000   0.000  -0.000  -0.006  -0.000   0.000
 -0.000   0.000  -0.000   0.000   0.000   0.000   0.000  -0.000  -0.000  -0.000   0.000   0.000   0.000   0.000  -0.006   0.000


------------------------ aborting loop because EDIFF is reached ----------------------------------------


    CHARGE:  cpu time    0.10: real time    0.10
    FORLOC:  cpu time    0.00: real time    0.00
    FORNL :  cpu time    0.33: real time    0.33
    STRESS:  cpu time    0.97: real time    0.97
    FORCOR:  cpu time    0.01: real time    0.01
    FORHAR:  cpu time    0.00: real time    0.00
    MIXING:  cpu time    0.00: real time    0.00

  FORCE on cell =-STRESS in cart. coord.  units (eV):
  Direction    XX          YY          ZZ          XY          YZ          ZX
  --------------------------------------------------------------------------------------
  Alpha Z   383.49575   383.49575   383.49575
  Ewald   -1268.02368 -1268.02368 -1268.02368    -0.00000     0.00000     0.00000
  Hartree   271.82687   271.82687   271.82687    -0.00000    -0.00000    -0.00000
  E(xc)    -232.23431  -232.23431  -232.23431    -0.00000     0.00000     0.00000
  Local     397.70781   397.70781   397.70781    -0.00000     0.00000    -0.00000
  n-local  -259.32484  -267.07547  -269.29308     0.29697     2.34436     0.68006
  augment   167.55022   167.55022   167.55022     0.00000     0.00000     0.00000
  Kinetic   551.29614   542.40760   537.52563    -2.83317     0.66598    -1.19177
  Fock        0.00000     0.00000     0.00000     0.00000     0.00000     0.00000
  -------------------------------------------------------------------------------------
  Total      -1.16535    -1.16535    -1.16535     0.00000     0.00000     0.00000
  in kB     -25.20103   -25.20103   -25.20103     0.00000     0.00000     0.00000
  external pressure =      -25.20 kB  Pullay stress =        0.00 kB


 VOLUME and BASIS-vectors are now :
 -----------------------------------------------------------------------------
  energy-cutoff  :      400.00
  volume of cell :       74.09
      direct lattice vectors                 reciprocal lattice vectors
     4.200000000  0.000000000  0.000000000     0.238095238  0.000000000  0.000000000
     0.000000000  4.200000000  0.000000000     0.000000000  0.238095238  0.000000000
     0.000000000  0.000000000  4.200000000     0.000000000  0.000000000  0.238095238

  length of vectors
     4.200000000  4.200000000  4.200000000     0.238095238  0.238095238  0.238095238


 FORCES acting on ions
    electron-ion (+dipol)            ewald-force                    non-local-force                 convergence-correction
 -----------------------------------------------------------------------------------------------
   -.338E-13 -.222E-13 -.316E-13   -.174E-14 -.958E-14 -.176E-15   -.155E-24 -.207E-24 -.103E-24   0.227E-13 0.162E-13 0.523E-13
   0.296E-12 0.234E-11 0.152E-11   0.424E-14 -.206E-14 -.153E-15   0.362E-24 0.310E-24 0.000E+00   -.192E-13 -.168E-13 0.446E-13
   0.298E-12 -.196E-13 0.496E-11   0.381E-14 0.815E-15 0.129E-14   -.207E-24 -.199E-24 0.155E-24   -.159E-13 0.174E-13 -.108E-12
   -.332E-13 0.287E-12 0.284E-12   -.690E-14 0.833E-14 0.132E-14   -.414E-24 0.155E-24 0.207E-24   0.294E-13 -.644E-14 -.919E-13
 -----------------------------------------------------------------------------------------------
   0.528E-12 0.259E-11 0.674E-11   -.585E-15 -.249E-14 0.228E-14   -.414E-24 0.598E-25 0.258E-24   0.170E-13 0.103E-13 -.103E-12
 
 
 POSITION                                       TOTAL-FORCE (eV/Angst)
 -----------------------------------------------------------------------------------
      0.00000      0.00000      0.00000        -0.000000     -0.000000     -0.000000
      2.10000      2.10000      0.00000        -0.000000     -0.000000      0.000000
      2.10000      0.00000      2.10000         0.000000      0.000000     -0.000000
      0.00000      2.10000      2.10000        -0.000000     -0.000000     -0.000000
 -----------------------------------------------------------------------------------
    total drift:                                0.000000      0.000000      0.000000


--------------------------------------------------------------------------------------------------------



  FREE ENERGIE OF THE ION-ELECTRON SYSTEM (eV)
  ---------------------------------------------------
  free  energy   TOTEN  =       -11.29531177 eV

  energy  without entropy=      -11.29467187  energy(sigma->0) =      -11.29509847
 


--------------------------------------------------------------------------------------------------------


    POTLOK:  cpu time    0.01: real time    0.01


--------------------------------------------------------------------------------------------------------


     LOOP+:  cpu time   22.73: real time   22.76
    4ORBIT:  cpu time    0.00: real time    0.00

 total amount of memory used by VASP on root node    61201. kBytes
========================================================================

   base      :      30000. kBytes
   nonl-proj :      21903. kBytes
   fftplans  :        652. kBytes
   grid      :        907. kBytes
   one-center:         31. kBytes
   wavefun   :       7708. kBytes
 
  
  
 General timing and accounting informations for this job:
 ========================================================
  
                  Total CPU time used (sec):       23.933
                            User time (sec):       23.552
                          System time (sec):        0.381
                         Elapsed time (sec):       24.124
  
                   Maximum memory used (kb):       85908.
                   Average memory used (kb):           0.
  
                          Minor page faults:        21892
                          Major page faults:           23
                 Voluntary context switches:          905
