       N       E                     dE             d eps       ncg     rms          rms(c)
RMM:   1     0.169396218741E+05    0.16940E+05   -0.38757E+05   690   0.122E+03
RMM:   2     0.588020246033E+04   -0.11059E+05   -0.12308E+05   690   0.315E+02
RMM:   3     0.237014841870E+04   -0.35101E+04   -0.46228E+04   690   0.191E+02
RMM:   4     0.277781504691E+03   -0.20924E+04   -0.19756E+04   690   0.148E+02
RMM:   5    -0.611893735570E+03   -0.88968E+03   -0.76887E+03   690   0.959E+01
RMM:   6    -0.975507250938E+03   -0.36361E+03   -0.28567E+03   690   0.574E+01
RMM:   7    -0.107445160700E+04   -0.98944E+02   -0.89866E+02   690   0.308E+01
RMM:   8    -0.110524366296E+04   -0.30792E+02   -0.27071E+02   690   0.173E+01
RMM:   9    -0.112132059608E+04   -0.16077E+02   -0.15412E+02  1622   0.992E+00
RMM:  10    -0.112210907855E+04   -0.78848E+00   -0.17728E+01  1798   0.280E+00
RMM:  11    -0.112214784874E+04   -0.38770E-01   -0.10724E+00  1996   0.663E-01
RMM:  12    -0.112216442379E+04   -0.16575E-01   -0.16016E-01  2022   0.173E-01    0.677E+01
RMM:  13    -0.995005961066E+03    0.12716E+03   -0.60291E+02  1382   0.264E+01    0.190E+01
RMM:  14    -0.993323130015E+03    0.16828E+01   -0.24326E+01  1395   0.605E+00    0.130E+01
RMM:  15    -0.993337024156E+03   -0.13894E-01   -0.55636E+00  1380   0.347E+00    0.381E+00
RMM:  16    -0.992717905425E+03    0.61912E+00   -0.91710E-01  1380   0.119E+00    0.168E+00
RMM:  17    -0.992661511445E+03    0.56394E-01   -0.49552E-01  1384   0.818E-01    0.502E-01
RMM:  18    -0.992660334337E+03    0.11771E-02   -0.35568E-02  1396   0.210E-01    0.351E-01
RMM:  19    -0.992655024577E+03    0.53098E-02   -0.21625E-02  1380   0.146E-01    0.127E-01
RMM:  20    -0.992653558793E+03    0.14658E-02   -0.48407E-03  1383   0.581E-02    0.717E-02
RMM:  21    -0.992654095435E+03   -0.53664E-03   -0.25663E-03  1381   0.388E-02    0.464E-02
RMM:  22    -0.992655803048E+03   -0.17076E-02   -0.11531E-03  1380   0.256E-02    0.274E-02
RMM:  23    -0.992657526135E+03   -0.17231E-02   -0.41438E-04  1383   0.155E-02    0.172E-02
RMM:  24    -0.992659023693E+03   -0.14976E-02   -0.14920E-04  1381   0.931E-03    0.115E-02
RMM:  25    -0.992660125568E+03   -0.11019E-02   -0.62523E-05  1380   0.669E-03    0.761E-03
RMM:  26    -0.992660971967E+03   -0.84640E-03   -0.39310E-05  1380   0.513E-03    0.413E-03
RMM:  27    -0.992661268587E+03   -0.29662E-03   -0.10725E-05  1381   0.254E-03    0.338E-03
RMM:  28    -0.992661429005E+03   -0.16042E-03   -0.46037E-06  1375   0.196E-03    0.159E-03
RMM:  29    -0.992661497181E+03   -0.68176E-04   -0.15166E-06  1146   0.100E-03    0.124E-03
RMM:  30    -0.992661528897E+03   -0.31716E-04   -0.84687E-07  1117   0.850E-04    0.624E-04
RMM:  31    -0.992661541697E+03   -0.12800E-04   -0.23428E-07   881   0.456E-04    0.410E-04
RMM:  32    -0.992661549257E+03   -0.75598E-05   -0.15367E-07   839   0.361E-04    0.343E-04
RMM:  33    -0.992661551805E+03   -0.25484E-05   -0.30474E-08   796   0.175E-04    0.169E-04
RMM:  34    -0.992661554192E+03   -0.23866E-05   -0.37404E-08   809   0.196E-04    0.201E-04
RMM:  35    -0.992661554965E+03   -0.77301E-06   -0.88537E-09   472   0.105E-04    0.897E-05
RMM:  36    -0.992661555540E+03   -0.57532E-06   -0.12390E-08   705   0.131E-04    0.129E-04
RMM:  37    -0.992661555657E+03   -0.11697E-06   -0.59648E-10   237   0.618E-05    0.751E-05
RMM:  38    -0.992661555780E+03   -0.12254E-06   -0.57924E-09   529   0.107E-04    0.864E-05
RMM:  39    -0.992661555805E+03   -0.25015E-07   -0.30828E-11   213   0.615E-05
    1 T=   295. E= -.10141044E+04 F= -.10184958E+04 E0= -.10185000E+04  EK= 0.43915E+01 SP= 0.00E+00 SK= 0.00E+00
       N       E                     dE             d eps       ncg     rms          rms(c)
RMM:   1    -0.992676866053E+03   -0.15310E-01   -0.12396E+01  1380   0.443E+00    0.323E-01
RMM:   2    -0.992650236941E+03    0.26629E-01   -0.67845E-02  1395   0.304E-01    0.223E-01
RMM:   3    -0.992648467307E+03    0.17696E-02   -0.49271E-03  1389   0.691E-02    0.996E-02
RMM:   4    -0.992648227778E+03    0.23953E-03   -0.15120E-03  1388   0.350E-02    0.327E-02
RMM:   5    -0.992648226943E+03    0.83532E-06   -0.12870E-04  1396   0.113E-02    0.190E-02
RMM:   6    -0.992648216240E+03    0.10703E-04   -0.51906E-05  1385   0.702E-03    0.926E-03
RMM:   7    -0.992648214531E+03    0.17087E-05   -0.65474E-06  1390   0.253E-03    0.515E-03
RMM:   8    -0.992648214753E+03   -0.22163E-06   -0.10179E-05  1350   0.281E-03    0.401E-03
RMM:   9    -0.992648214888E+03   -0.13500E-06   -0.85372E-07  1185   0.996E-04    0.198E-03
RMM:  10    -0.992648216434E+03   -0.15461E-05   -0.26068E-06  1257   0.148E-03    0.238E-03
RMM:  11    -0.992648216997E+03   -0.56319E-06   -0.60948E-07  1112   0.781E-04    0.442E-04
RMM:  12    -0.992648218172E+03   -0.11756E-05   -0.26407E-07   915   0.469E-04    0.667E-04
RMM:  13    -0.992648218710E+03   -0.53784E-06   -0.53557E-08   798   0.256E-04    0.204E-04
RMM:  14    -0.992648219201E+03   -0.49037E-06   -0.51217E-08   695   0.225E-04    0.261E-04
RMM:  15    -0.992648219525E+03   -0.32478E-06   -0.13078E-08   576   0.125E-04    0.100E-04
RMM:  16    -0.992648219793E+03   -0.26754E-06   -0.17661E-08   672   0.135E-04    0.131E-04
RMM:  17    -0.992648219905E+03   -0.11195E-06   -0.34647E-09   341   0.830E-05    0.359E-05
RMM:  18    -0.992648219973E+03   -0.68205E-07   -0.77641E-09   532   0.104E-04
    2 T=   294. E= -.10141044E+04 F= -.10184820E+04 E0= -.10184863E+04  EK= 0.43776E+01 SP= 0.00E+00 SK= 0.00E+00
       N       E                     dE             d eps       ncg     rms          rms(c)
RMM:   1    -0.992634742480E+03    0.13477E-01   -0.91031E-02  1380   0.384E-01    0.390E-02
RMM:   2    -0.992634609348E+03    0.13313E-03   -0.82943E-04  1400   0.400E-02    0.268E-02
RMM:   3    -0.992634581146E+03    0.28202E-04   -0.11236E-04  1389   0.107E-02    0.967E-03
RMM:   4    -0.992634579209E+03    0.19375E-05   -0.22666E-05  1391   0.435E-03    0.395E-03
RMM:   5    -0.992634579076E+03    0.13225E-06   -0.16268E-06  1361   0.140E-03    0.231E-03
RMM:   6    -0.992634578984E+03    0.91954E-07   -0.68932E-07  1150   0.914E-04
    3 T=   294. E= -.10141044E+04 F= -.10184678E+04 E0= -.10184721E+04  EK= 0.43634E+01 SP= 0.00E+00 SK= 0.00E+00
       N       E                     dE             d eps       ncg     rms          rms(c)
RMM:   1    -0.992620141719E+03    0.14437E-01   -0.28594E-02  1380   0.181E-01    0.579E-03
RMM:   2    -0.992620190907E+03   -0.49188E-04   -0.66739E-04  1542   0.236E-02    0.432E-03
RMM:   3    -0.992620192129E+03   -0.12222E-05   -0.39329E-05  1517   0.590E-03    0.219E-03
RMM:   4    -0.992620192561E+03   -0.43205E-06   -0.52755E-06  1476   0.177E-03    0.775E-04
RMM:   5    -0.992620192729E+03   -0.16796E-06   -0.18045E-07   830   0.502E-04    0.483E-04
RMM:   6    -0.992620192983E+03   -0.25381E-06   -0.80837E-08   803   0.343E-04    0.279E-04
RMM:   7    -0.992620193177E+03   -0.19385E-06   -0.39413E-08   795   0.249E-04    0.178E-04
RMM:   8    -0.992620193371E+03   -0.19460E-06   -0.28365E-08   730   0.184E-04    0.109E-04
RMM:   9    -0.992620193472E+03   -0.10079E-06   -0.11076E-08   638   0.139E-04    0.804E-05
RMM:  10    -0.992620193602E+03   -0.12989E-06   -0.81531E-09   493   0.109E-04    0.396E-05
RMM:  11    -0.992620193650E+03   -0.47978E-07   -0.27221E-09   352   0.900E-05
    4 T=   293. E= -.10141045E+04 F= -.10184529E+04 E0= -.10184572E+04  EK= 0.43484E+01 SP= 0.00E+00 SK= 0.00E+00
       N       E                     dE             d eps       ncg     rms          rms(c)
RMM:   1    -0.992604491297E+03    0.15702E-01   -0.12685E-02  1380   0.115E-01    0.608E-03
RMM:   2    -0.992604536814E+03   -0.45517E-04   -0.56728E-04  1689   0.221E-02    0.427E-03
RMM:   3    -0.992604533735E+03    0.30790E-05   -0.20386E-05  1506   0.403E-03    0.162E-03
RMM:   4    -0.992604533902E+03   -0.16703E-06   -0.14255E-06  1316   0.128E-03    0.784E-04
RMM:   5    -0.992604534138E+03   -0.23625E-06   -0.18057E-07   851   0.445E-04    0.387E-04
RMM:   6    -0.992604534358E+03   -0.21952E-06   -0.70373E-08   805   0.292E-04    0.234E-04
RMM:   7    -0.992604534519E+03   -0.16156E-06   -0.36681E-08   800   0.220E-04    0.144E-04
RMM:   8    -0.992604534649E+03   -0.12928E-06   -0.21288E-08   706   0.159E-04    0.105E-04
RMM:   9    -0.992604534792E+03   -0.14347E-06   -0.13224E-08   645   0.132E-04    0.526E-05
RMM:  10    -0.992604534846E+03   -0.53944E-07   -0.39224E-09   382   0.949E-05
    5 T=   291. E= -.10141045E+04 F= -.10184367E+04 E0= -.10184409E+04  EK= 0.43322E+01 SP= 0.00E+00 SK= 0.00E+00
       N       E                     dE             d eps       ncg     rms          rms(c)
RMM:   1    -0.992586473382E+03    0.18061E-01   -0.22077E-01  1380   0.461E-01    0.747E-03
RMM:   2    -0.992587187594E+03   -0.71421E-03   -0.88418E-03  1709   0.721E-02    0.509E-03
RMM:   3    -0.992587176286E+03    0.11308E-04   -0.36203E-04  1542   0.130E-02    0.348E-03
RMM:   4    -0.992587175589E+03    0.69672E-06   -0.12377E-05  1622   0.305E-03    0.143E-03
RMM:   5    -0.992587175618E+03   -0.28740E-07   -0.80974E-07  1060   0.758E-04
    6 T=   290. E= -.10141045E+04 F= -.10184187E+04 E0= -.10184229E+04  EK= 0.43142E+01 SP= 0.00E+00 SK= 0.00E+00
       N       E                     dE             d eps       ncg     rms          rms(c)
RMM:   1    -0.992567870575E+03    0.19305E-01   -0.84702E-03  1384   0.798E-02    0.606E-03
RMM:   2    -0.992567892252E+03   -0.21677E-04   -0.30079E-04  1672   0.173E-02    0.413E-03
RMM:   3    -0.992567892063E+03    0.18917E-06   -0.16431E-05  1534   0.340E-03    0.142E-03
RMM:   4    -0.992567892120E+03   -0.56782E-07   -0.90522E-07  1112   0.106E-03
    7 T=   289. E= -.10141046E+04 F= -.10183988E+04 E0= -.10184030E+04  EK= 0.42943E+01 SP= 0.00E+00 SK= 0.00E+00
       N       E                     dE             d eps       ncg     rms          rms(c)
RMM:   1    -0.992546698385E+03    0.21194E-01   -0.29964E-02  1380   0.178E-01    0.593E-03
RMM:   2    -0.992546777191E+03   -0.78806E-04   -0.92727E-04  1643   0.284E-02    0.446E-03
RMM:   3    -0.992546776653E+03    0.53836E-06   -0.41270E-05  1505   0.597E-03    0.223E-03
RMM:   4    -0.992546776772E+03   -0.11959E-06   -0.42781E-06  1468   0.185E-03    0.749E-04
RMM:   5    -0.992546776819E+03   -0.46304E-07   -0.21330E-07   876   0.504E-04
    8 T=   287. E= -.10141045E+04 F= -.10183770E+04 E0= -.10183812E+04  EK= 0.42725E+01 SP= 0.00E+00 SK= 0.00E+00
       N       E                     dE             d eps       ncg     rms          rms(c)
RMM:   1    -0.992524315651E+03    0.22461E-01   -0.22502E-02  1384   0.154E-01    0.632E-03
RMM:   2    -0.992524363253E+03   -0.47602E-04   -0.71908E-04  1653   0.273E-02    0.424E-03
RMM:   3    -0.992524362764E+03    0.48950E-06   -0.38234E-05  1571   0.536E-03    0.177E-03
RMM:   4    -0.992524362706E+03    0.57305E-07   -0.17725E-06  1361   0.153E-03    0.670E-04
RMM:   5    -0.992524362788E+03   -0.81258E-07   -0.15539E-07   848   0.438E-04
    9 T=   286. E= -.10141045E+04 F= -.10183539E+04 E0= -.10183581E+04  EK= 0.42494E+01 SP= 0.00E+00 SK= 0.00E+00
       N       E                     dE             d eps       ncg     rms          rms(c)
RMM:   1    -0.992501562719E+03    0.22800E-01   -0.15511E-02  1384   0.120E-01    0.605E-03
RMM:   2    -0.992501597032E+03   -0.34313E-04   -0.49696E-04  1601   0.240E-02    0.410E-03
RMM:   3    -0.992501597905E+03   -0.87243E-06   -0.31552E-05  1613   0.477E-03    0.151E-03
RMM:   4    -0.992501597932E+03   -0.27023E-07   -0.13612E-06  1213   0.138E-03    0.657E-04
RMM:   5    -0.992501598037E+03   -0.10546E-06   -0.15814E-07   859   0.434E-04    0.353E-04
RMM:   6    -0.992501598104E+03   -0.66706E-07   -0.36741E-08   808   0.268E-04
   10 T=   284. E= -.10141044E+04 F= -.10183304E+04 E0= -.10183346E+04  EK= 0.42260E+01 SP= 0.00E+00 SK= 0.00E+00
       N       E                     dE             d eps       ncg     rms          rms(c)
RMM:   1    -0.992479690167E+03    0.21908E-01   -0.11173E-02  1385   0.866E-02    0.612E-03
RMM:   2    -0.992479721793E+03   -0.31626E-04   -0.42178E-04  1664   0.210E-02    0.407E-03
RMM:   3    -0.992479722289E+03   -0.49615E-06   -0.26011E-05  1550   0.394E-03    0.144E-03
RMM:   4    -0.992479722331E+03   -0.41953E-07   -0.11869E-06  1150   0.122E-03    0.604E-04
RMM:   5    -0.992479722412E+03   -0.81098E-07   -0.13979E-07   846   0.393E-04
   11 T=   283. E= -.10141043E+04 F= -.10183078E+04 E0= -.10183119E+04  EK= 0.42034E+01 SP= 0.00E+00 SK= 0.00E+00
       N       E                     dE             d eps       ncg     rms          rms(c)
RMM:   1    -0.992460060716E+03    0.19662E-01   -0.22521E-02  1382   0.152E-01    0.604E-03
RMM:   2    -0.992460134857E+03   -0.74140E-04   -0.91154E-04  1682   0.297E-02    0.427E-03
RMM:   3    -0.992460133160E+03    0.16970E-05   -0.38336E-05  1532   0.553E-03    0.209E-03
RMM:   4    -0.992460133159E+03    0.45111E-09   -0.26164E-06  1413   0.171E-03    0.768E-04
RMM:   5    -0.992460133223E+03   -0.64014E-07   -0.20559E-07   865   0.481E-04
   12 T=   281. E= -.10141043E+04 F= -.10182874E+04 E0= -.10182915E+04  EK= 0.41831E+01 SP= 0.00E+00 SK= 0.00E+00
       N       E                     dE             d eps       ncg     rms          rms(c)
RMM:   1    -0.992443862015E+03    0.16271E-01   -0.77714E-02  1380   0.290E-01    0.577E-03
RMM:   2    -0.992444113450E+03   -0.25143E-03   -0.30634E-03  1727   0.474E-02    0.433E-03
RMM:   3    -0.992444093872E+03    0.19578E-04   -0.70907E-05  1488   0.809E-03    0.244E-03
RMM:   4    -0.992444094026E+03   -0.15425E-06   -0.72525E-06  1597   0.253E-03    0.812E-04
RMM:   5    -0.992444093999E+03    0.27081E-07   -0.33115E-07   925   0.607E-04
   13 T=   280. E= -.10141042E+04 F= -.10182705E+04 E0= -.10182747E+04  EK= 0.41663E+01 SP= 0.00E+00 SK= 0.00E+00
       N       E                     dE             d eps       ncg     rms          rms(c)
RMM:   1    -0.992432462966E+03    0.11631E-01   -0.39595E-02  1382   0.205E-01    0.554E-03
RMM:   2    -0.992432544952E+03   -0.81986E-04   -0.14028E-03  1595   0.367E-02    0.374E-03
RMM:   3    -0.992432547855E+03   -0.29034E-05   -0.97530E-05  1633   0.777E-03    0.168E-03
RMM:   4    -0.992432547233E+03    0.62189E-06   -0.24917E-06  1449   0.177E-03    0.635E-04
RMM:   5    -0.992432547282E+03   -0.49127E-07   -0.19175E-07   872   0.445E-04
   14 T=   279. E= -.10141042E+04 F= -.10182581E+04 E0= -.10182623E+04  EK= 0.41539E+01 SP= 0.00E+00 SK= 0.00E+00
       N       E                     dE             d eps       ncg     rms          rms(c)
RMM:   1    -0.992425841367E+03    0.67059E-02   -0.13625E-02  1385   0.859E-02    0.544E-03
RMM:   2    -0.992425883495E+03   -0.42129E-04   -0.53221E-04  1655   0.236E-02    0.357E-03
RMM:   3    -0.992425884738E+03   -0.12426E-05   -0.35547E-05  1555   0.434E-03    0.152E-03
RMM:   4    -0.992425884692E+03    0.45795E-07   -0.14150E-06  1178   0.134E-03    0.615E-04
RMM:   5    -0.992425884740E+03   -0.47585E-07   -0.16804E-07   859   0.421E-04
   15 T=   279. E= -.10141042E+04 F= -.10182506E+04 E0= -.10182547E+04  EK= 0.41463E+01 SP= 0.00E+00 SK= 0.00E+00
       N       E                     dE             d eps       ncg     rms          rms(c)
RMM:   1    -0.992422990833E+03    0.28939E-02   -0.42434E-01  1382   0.633E-01    0.624E-03
RMM:   2    -0.992423895239E+03   -0.90441E-03   -0.14691E-02  1587   0.102E-01    0.413E-03
RMM:   3    -0.992423906042E+03   -0.10803E-04   -0.94673E-04  1651   0.217E-02    0.259E-03
RMM:   4    -0.992423899810E+03    0.62325E-05   -0.23544E-05  1554   0.429E-03    0.107E-03
RMM:   5    -0.992423899791E+03    0.19048E-07   -0.14507E-06  1206   0.966E-04    0.537E-04
RMM:   6    -0.992423899811E+03   -0.20533E-07   -0.12755E-07   824   0.422E-04
   16 T=   279. E= -.10141043E+04 F= -.10182477E+04 E0= -.10182518E+04  EK= 0.41434E+01 SP= 0.00E+00 SK= 0.00E+00
       N       E                     dE             d eps       ncg     rms          rms(c)
RMM:   1    -0.992425634086E+03   -0.17343E-02   -0.28345E-02  1389   0.154E-01    0.597E-03
RMM:   2    -0.992425739389E+03   -0.10530E-03   -0.12633E-03  1687   0.346E-02    0.406E-03
RMM:   3    -0.992425737623E+03    0.17668E-05   -0.57066E-05  1513   0.616E-03    0.235E-03
RMM:   4    -0.992425737570E+03    0.52765E-07   -0.33250E-06  1489   0.204E-03    0.908E-04
RMM:   5    -0.992425737608E+03   -0.38432E-07   -0.32628E-07   911   0.522E-04
   17 T=   279. E= -.10141044E+04 F= -.10182485E+04 E0= -.10182527E+04  EK= 0.41442E+01 SP= 0.00E+00 SK= 0.00E+00
       N       E                     dE             d eps       ncg     rms          rms(c)
RMM:   1    -0.992430031958E+03   -0.42944E-02   -0.16641E-02  1391   0.994E-02    0.551E-03
RMM:   2    -0.992430080166E+03   -0.48208E-04   -0.65703E-04  1686   0.255E-02    0.372E-03
RMM:   3    -0.992430080538E+03   -0.37233E-06   -0.35537E-05  1538   0.459E-03    0.183E-03
RMM:   4    -0.992430080474E+03    0.64290E-07   -0.19749E-06  1275   0.156E-03    0.728E-04
RMM:   5    -0.992430080500E+03   -0.26717E-07   -0.22598E-07   877   0.465E-04
   18 T=   279. E= -.10141045E+04 F= -.10182519E+04 E0= -.10182560E+04  EK= 0.41474E+01 SP= 0.00E+00 SK= 0.00E+00
       N       E                     dE             d eps       ncg     rms          rms(c)
RMM:   1    -0.992435324445E+03   -0.52440E-02   -0.15098E-02  1390   0.922E-02    0.567E-03
RMM:   2    -0.992435364313E+03   -0.39868E-04   -0.53853E-04  1666   0.238E-02    0.363E-03
RMM:   3    -0.992435365091E+03   -0.77812E-06   -0.32739E-05  1545   0.432E-03    0.145E-03
RMM:   4    -0.992435365060E+03    0.31258E-07   -0.15748E-06  1207   0.143E-03    0.668E-04
RMM:   5    -0.992435365077E+03   -0.16633E-07   -0.18795E-07   871   0.438E-04
   19 T=   279. E= -.10141046E+04 F= -.10182562E+04 E0= -.10182603E+04  EK= 0.41516E+01 SP= 0.00E+00 SK= 0.00E+00
       N       E                     dE             d eps       ncg     rms          rms(c)
RMM:   1    -0.992439977924E+03   -0.46129E-02   -0.27389E-02  1386   0.146E-01    0.593E-03
RMM:   2    -0.992440077989E+03   -0.10007E-03   -0.12324E-03  1682   0.342E-02    0.394E-03
RMM:   3    -0.992440075292E+03    0.26971E-05   -0.52860E-05  1520   0.605E-03    0.188E-03
RMM:   4    -0.992440075283E+03    0.94296E-08   -0.28944E-06  1452   0.195E-03    0.742E-04
RMM:   5    -0.992440075316E+03   -0.33047E-07   -0.29312E-07   898   0.497E-04
   20 T=   280. E= -.10141047E+04 F= -.10182598E+04 E0= -.10182639E+04  EK= 0.41552E+01 SP= 0.00E+00 SK= 0.00E+00
       N       E                     dE             d eps       ncg     rms          rms(c)
RMM:   1    -0.992442940179E+03   -0.28649E-02   -0.27941E-02  1387   0.148E-01    0.623E-03
RMM:   2    -0.992443027357E+03   -0.87178E-04   -0.10868E-03  1666   0.345E-02    0.400E-03
RMM:   3    -0.992443028164E+03   -0.80693E-06   -0.61757E-05  1540   0.619E-03    0.191E-03
RMM:   4    -0.992443028126E+03    0.37966E-07   -0.28550E-06  1417   0.197E-03    0.804E-04
RMM:   5    -0.992443028155E+03   -0.28551E-07   -0.31898E-07   898   0.505E-04
   21 T=   280. E= -.10141047E+04 F= -.10182617E+04 E0= -.10182658E+04  EK= 0.41570E+01 SP= 0.00E+00 SK= 0.00E+00
       N       E                     dE             d eps       ncg     rms          rms(c)
RMM:   1    -0.992443231582E+03   -0.20346E-03   -0.40009E-01  1380   0.662E-01    0.699E-03
RMM:   2    -0.992443576695E+03   -0.34511E-03   -0.13427E-02  1582   0.109E-01    0.431E-03
RMM:   3    -0.992443595345E+03   -0.18651E-04   -0.89010E-04  1651   0.235E-02    0.253E-03
RMM:   4    -0.992443589752E+03    0.55930E-05   -0.20254E-05  1544   0.457E-03    0.107E-03
RMM:   5    -0.992443589698E+03    0.54191E-07   -0.11985E-06  1172   0.991E-04    0.442E-04
RMM:   6    -0.992443589724E+03   -0.25408E-07   -0.12149E-07   847   0.417E-04
   22 T=   280. E= -.10141047E+04 F= -.10182612E+04 E0= -.10182652E+04  EK= 0.41565E+01 SP= 0.00E+00 SK= 0.00E+00
       N       E                     dE             d eps       ncg     rms          rms(c)
RMM:   1    -0.992441723113E+03    0.18666E-02   -0.22129E-02  1386   0.121E-01    0.629E-03
RMM:   2    -0.992441791681E+03   -0.68568E-04   -0.87416E-04  1653   0.315E-02    0.409E-03
RMM:   3    -0.992441793056E+03   -0.13756E-05   -0.55829E-05  1555   0.574E-03    0.168E-03
RMM:   4    -0.992441792946E+03    0.11052E-06   -0.21482E-06  1335   0.173E-03    0.708E-04
RMM:   5    -0.992441792975E+03   -0.29511E-07   -0.24608E-07   887   0.453E-04
   23 T=   279. E= -.10141047E+04 F= -.10182583E+04 E0= -.10182623E+04  EK= 0.41536E+01 SP= 0.00E+00 SK= 0.00E+00
       N       E                     dE             d eps       ncg     rms          rms(c)
RMM:   1    -0.992438256568E+03    0.35364E-02   -0.28587E-02  1386   0.157E-01    0.625E-03
RMM:   2    -0.992438328893E+03   -0.72325E-04   -0.10775E-03  1626   0.352E-02    0.413E-03
RMM:   3    -0.992438330195E+03   -0.13023E-05   -0.66804E-05  1579   0.670E-03    0.177E-03
RMM:   4    -0.992438329963E+03    0.23136E-06   -0.24764E-06  1418   0.188E-03    0.736E-04
RMM:   5    -0.992438329962E+03    0.14843E-08   -0.26485E-07   889   0.466E-04
   24 T=   279. E= -.10141046E+04 F= -.10182538E+04 E0= -.10182577E+04  EK= 0.41491E+01 SP= 0.00E+00 SK= 0.00E+00
       N       E                     dE             d eps       ncg     rms          rms(c)
RMM:   1    -0.992434260477E+03    0.40695E-02   -0.22122E-02  1385   0.130E-01    0.616E-03
RMM:   2    -0.992434331612E+03   -0.71135E-04   -0.90215E-04  1644   0.317E-02    0.398E-03
RMM:   3    -0.992434332714E+03   -0.11018E-05   -0.55136E-05  1558   0.574E-03    0.153E-03
RMM:   4    -0.992434332596E+03    0.11780E-06   -0.21317E-06  1364   0.171E-03    0.676E-04
RMM:   5    -0.992434332602E+03   -0.59954E-08   -0.23154E-07   884   0.432E-04
   25 T=   279. E= -.10141046E+04 F= -.10182487E+04 E0= -.10182526E+04  EK= 0.41441E+01 SP= 0.00E+00 SK= 0.00E+00
       N       E                     dE             d eps       ncg     rms          rms(c)
RMM:   1    -0.992430968047E+03    0.33645E-02   -0.29229E-02  1386   0.152E-01    0.599E-03
RMM:   2    -0.992431086029E+03   -0.11798E-03   -0.13947E-03  1670   0.346E-02    0.401E-03
RMM:   3    -0.992431083133E+03    0.28960E-05   -0.56730E-05  1491   0.640E-03    0.194E-03
RMM:   4    -0.992431083170E+03   -0.36991E-07   -0.41170E-06  1496   0.203E-03    0.693E-04
RMM:   5    -0.992431083153E+03    0.17637E-07   -0.26695E-07   894   0.482E-04
   26 T=   278. E= -.10141045E+04 F= -.10182444E+04 E0= -.10182482E+04  EK= 0.41399E+01 SP= 0.00E+00 SK= 0.00E+00
       N       E                     dE             d eps       ncg     rms          rms(c)
RMM:   1    -0.992429616113E+03    0.14671E-02   -0.19659E-02  1388   0.100E-01    0.577E-03
RMM:   2    -0.992429676931E+03   -0.60818E-04   -0.75455E-04  1647   0.285E-02    0.376E-03
RMM:   3    -0.992429679095E+03   -0.21637E-05   -0.51925E-05  1557   0.522E-03    0.165E-03
RMM:   4    -0.992429678952E+03    0.14322E-06   -0.19481E-06  1261   0.160E-03    0.658E-04
RMM:   5    -0.992429678959E+03   -0.67812E-08   -0.22898E-07   876   0.445E-04
   27 T=   278. E= -.10141045E+04 F= -.10182419E+04 E0= -.10182456E+04  EK= 0.41375E+01 SP= 0.00E+00 SK= 0.00E+00
       N       E                     dE             d eps       ncg     rms          rms(c)
RMM:   1    -0.992430073343E+03   -0.39439E-03   -0.15547E-01  1380   0.391E-01    0.603E-03
RMM:   2    -0.992430732493E+03   -0.65915E-03   -0.75354E-03  1647   0.629E-02    0.433E-03
RMM:   3    -0.992430710254E+03    0.22239E-04   -0.23386E-04  1455   0.133E-02    0.273E-03
RMM:   4    -0.992430712484E+03   -0.22308E-05   -0.31534E-05  1643   0.383E-03    0.943E-04
RMM:   5    -0.992430712208E+03    0.27689E-06   -0.10286E-06  1054   0.904E-04    0.403E-04
RMM:   6    -0.992430712215E+03   -0.73778E-08   -0.13635E-07   842   0.363E-04
   28 T=   278. E= -.10141045E+04 F= -.10182420E+04 E0= -.10182456E+04  EK= 0.41375E+01 SP= 0.00E+00 SK= 0.00E+00
       N       E                     dE             d eps       ncg     rms          rms(c)
RMM:   1    -0.992434004462E+03   -0.32923E-02   -0.21604E-02  1392   0.992E-02    0.574E-03
RMM:   2    -0.992434063161E+03   -0.58699E-04   -0.75310E-04  1614   0.305E-02    0.354E-03
RMM:   3    -0.992434066759E+03   -0.35976E-05   -0.59005E-05  1579   0.554E-03    0.163E-03
RMM:   4    -0.992434066637E+03    0.12206E-06   -0.20974E-06  1238   0.171E-03    0.660E-04
RMM:   5    -0.992434066655E+03   -0.18874E-07   -0.27075E-07   895   0.449E-04
   29 T=   278. E= -.10141046E+04 F= -.10182443E+04 E0= -.10182478E+04  EK= 0.41398E+01 SP= 0.00E+00 SK= 0.00E+00
       N       E                     dE             d eps       ncg     rms          rms(c)
RMM:   1    -0.992438567558E+03   -0.45009E-02   -0.15044E-01  1384   0.364E-01    0.609E-03
RMM:   2    -0.992438860468E+03   -0.29291E-03   -0.42867E-03  1599   0.645E-02    0.371E-03
RMM:   3    -0.992438868074E+03   -0.76065E-05   -0.24670E-04  1619   0.132E-02    0.222E-03
RMM:   4    -0.992438867207E+03    0.86747E-06   -0.83085E-06  1530   0.329E-03    0.904E-04
RMM:   5    -0.992438867199E+03    0.74215E-08   -0.56650E-07  1007   0.715E-04
   30 T=   279. E= -.10141047E+04 F= -.10182482E+04 E0= -.10182516E+04  EK= 0.41435E+01 SP= 0.00E+00 SK= 0.00E+00
       N       E                     dE             d eps       ncg     rms          rms(c)
RMM:   1    -0.992443616066E+03   -0.47489E-02   -0.22594E-02  1387   0.125E-01    0.563E-03
RMM:   2    -0.992443685960E+03   -0.69895E-04   -0.88867E-04  1636   0.321E-02    0.364E-03
RMM:   3    -0.992443687746E+03   -0.17856E-05   -0.55111E-05  1564   0.578E-03    0.179E-03
RMM:   4    -0.992443687594E+03    0.15218E-06   -0.25119E-06  1378   0.187E-03    0.684E-04
RMM:   5    -0.992443687605E+03   -0.10739E-07   -0.29663E-07   891   0.467E-04
   31 T=   279. E= -.10141048E+04 F= -.10182521E+04 E0= -.10182554E+04  EK= 0.41473E+01 SP= 0.00E+00 SK= 0.00E+00
       N       E                     dE             d eps       ncg     rms          rms(c)
RMM:   1    -0.992446677189E+03   -0.29896E-02   -0.66496E-02  1385   0.268E-01    0.597E-03
RMM:   2    -0.992446837232E+03   -0.16004E-03   -0.26287E-03  1596   0.502E-02    0.382E-03
RMM:   3    -0.992446840071E+03   -0.28389E-05   -0.16408E-04  1609   0.991E-03    0.188E-03
RMM:   4    -0.992446839114E+03    0.95706E-06   -0.46774E-06  1518   0.239E-03    0.724E-04
RMM:   5    -0.992446839123E+03   -0.92114E-08   -0.36075E-07   950   0.533E-04
   32 T=   279. E= -.10141049E+04 F= -.10182544E+04 E0= -.10182576E+04  EK= 0.41495E+01 SP= 0.00E+00 SK= 0.00E+00
       N       E                     dE             d eps       ncg     rms          rms(c)
RMM:   1    -0.992446669017E+03    0.17010E-03   -0.68126E-02  1385   0.241E-01    0.679E-03
RMM:   2    -0.992446817271E+03   -0.14825E-03   -0.20328E-03  1641   0.469E-02    0.394E-03
RMM:   3    -0.992446817639E+03   -0.36790E-06   -0.10360E-04  1568   0.872E-03    0.204E-03
RMM:   4    -0.992446817489E+03    0.14965E-06   -0.44204E-06  1522   0.256E-03    0.859E-04
RMM:   5    -0.992446817508E+03   -0.18801E-07   -0.36953E-07   937   0.563E-04
   33 T=   279. E= -.10141050E+04 F= -.10182535E+04 E0= -.10182566E+04  EK= 0.41485E+01 SP= 0.00E+00 SK= 0.00E+00
       N       E                     dE             d eps       ncg     rms          rms(c)
RMM:   1    -0.992442332659E+03    0.44848E-02   -0.15098E-01  1381   0.411E-01    0.695E-03
RMM:   2    -0.992442707370E+03   -0.37471E-03   -0.56505E-03  1618   0.713E-02    0.422E-03
RMM:   3    -0.992442704648E+03    0.27220E-05   -0.29160E-04  1600   0.139E-02    0.226E-03
RMM:   4    -0.992442703092E+03    0.15559E-05   -0.99838E-06  1581   0.336E-03    0.915E-04
RMM:   5    -0.992442703055E+03    0.37908E-07   -0.57543E-07  1044   0.710E-04
   34 T=   279. E= -.10141050E+04 F= -.10182486E+04 E0= -.10182516E+04  EK= 0.41436E+01 SP= 0.00E+00 SK= 0.00E+00
       N       E                     dE             d eps       ncg     rms          rms(c)
RMM:   1    -0.992434321118E+03    0.83820E-02   -0.34199E-02  1384   0.179E-01    0.682E-03
RMM:   2    -0.992434451132E+03   -0.13001E-03   -0.15676E-03  1661   0.395E-02    0.443E-03
RMM:   3    -0.992434449679E+03    0.14529E-05   -0.71471E-05  1537   0.706E-03    0.216E-03
RMM:   4    -0.992434449538E+03    0.14080E-06   -0.42615E-06  1492   0.222E-03    0.874E-04
RMM:   5    -0.992434449533E+03    0.48894E-08   -0.37225E-07   925   0.547E-04
   35 T=   278. E= -.10141049E+04 F= -.10182395E+04 E0= -.10182425E+04  EK= 0.41346E+01 SP= 0.00E+00 SK= 0.00E+00
       N       E                     dE             d eps       ncg     rms          rms(c)
RMM:   1    -0.992422881780E+03    0.11568E-01   -0.34283E-02  1383   0.176E-01    0.697E-03
RMM:   2    -0.992422965378E+03   -0.83598E-04   -0.11996E-03  1619   0.375E-02    0.431E-03
RMM:   3    -0.992422967926E+03   -0.25476E-05   -0.76586E-05  1599   0.720E-03    0.208E-03
RMM:   4    -0.992422967642E+03    0.28395E-06   -0.32249E-06  1467   0.215E-03    0.856E-04
RMM:   5    -0.992422967658E+03   -0.16473E-07   -0.34063E-07   910   0.527E-04
   36 T=   277. E= -.10141048E+04 F= -.10182272E+04 E0= -.10182301E+04  EK= 0.41224E+01 SP= 0.00E+00 SK= 0.00E+00
       N       E                     dE             d eps       ncg     rms          rms(c)
RMM:   1    -0.992829327078E+03   -0.40636E+00   -0.27350E+01  1380   0.326E+00    0.503E-02
RMM:   2    -0.992413801489E+03    0.41553E+00   -0.10423E+00  1622   0.812E-01    0.309E-02
RMM:   3    -0.992410397884E+03    0.34036E-02   -0.57074E-02  1542   0.162E-01    0.187E-02
RMM:   4    -0.992410073167E+03    0.32472E-03   -0.28271E-03  1709   0.341E-02    0.136E-02
RMM:   5    -0.992410044092E+03    0.29075E-04   -0.11701E-04  1512   0.657E-03    0.103E-02
RMM:   6    -0.992410041509E+03    0.25837E-05   -0.10830E-05  1435   0.253E-03    0.571E-03
RMM:   7    -0.992410040925E+03    0.58381E-06   -0.25161E-06  1334   0.141E-03    0.225E-03
RMM:   8    -0.992410040910E+03    0.14625E-07   -0.53347E-07  1068   0.683E-04
   37 T=   276. E= -.10141047E+04 F= -.10182134E+04 E0= -.10182163E+04  EK= 0.41087E+01 SP= 0.00E+00 SK= 0.00E+00
       N       E                     dE             d eps       ncg     rms          rms(c)
RMM:   1    -0.992397642153E+03    0.12399E-01   -0.90580E-02  1380   0.293E-01    0.775E-03
RMM:   2    -0.992398030057E+03   -0.38790E-03   -0.49593E-03  1658   0.607E-02    0.477E-03
RMM:   3    -0.992398020111E+03    0.99456E-05   -0.18642E-04  1575   0.110E-02    0.270E-03
RMM:   4    -0.992398019228E+03    0.88356E-06   -0.76363E-06  1598   0.277E-03    0.106E-03
RMM:   5    -0.992398019193E+03    0.34343E-07   -0.50739E-07   990   0.629E-04
   38 T=   276. E= -.10141045E+04 F= -.10182006E+04 E0= -.10182034E+04  EK= 0.40960E+01 SP= 0.00E+00 SK= 0.00E+00
       N       E                     dE             d eps       ncg     rms          rms(c)
RMM:   1    -0.992389290849E+03    0.87284E-02   -0.29214E-02  1393   0.134E-01    0.654E-03
RMM:   2    -0.992389386993E+03   -0.96144E-04   -0.12267E-03  1642   0.368E-02    0.413E-03
RMM:   3    -0.992389389486E+03   -0.24929E-05   -0.80568E-05  1560   0.676E-03    0.206E-03
RMM:   4    -0.992389389263E+03    0.22270E-06   -0.31297E-06  1430   0.207E-03    0.887E-04
RMM:   5    -0.992389389290E+03   -0.27314E-07   -0.36730E-07   918   0.516E-04
   39 T=   275. E= -.10141044E+04 F= -.10181911E+04 E0= -.10181939E+04  EK= 0.40867E+01 SP= 0.00E+00 SK= 0.00E+00
       N       E                     dE             d eps       ncg     rms          rms(c)
RMM:   1    -0.992385600521E+03    0.37887E-02   -0.22258E-01  1380   0.462E-01    0.675E-03
RMM:   2    -0.992386355173E+03   -0.75465E-03   -0.91067E-03  1684   0.783E-02    0.444E-03
RMM:   3    -0.992386313339E+03    0.41835E-04   -0.23838E-04  1462   0.143E-02    0.259E-03
RMM:   4    -0.992386315066E+03   -0.17275E-05   -0.26739E-05  1694   0.429E-03    0.985E-04
RMM:   5    -0.992386314862E+03    0.20456E-06   -0.86951E-07  1100   0.856E-04    0.471E-04
RMM:   6    -0.992386314895E+03   -0.33353E-07   -0.96516E-08   825   0.395E-04
   40 T=   275. E= -.10141043E+04 F= -.10181871E+04 E0= -.10181899E+04  EK= 0.40828E+01 SP= 0.00E+00 SK= 0.00E+00
       N       E                     dE             d eps       ncg     rms          rms(c)
RMM:   1    -0.984333239856E+03    0.80531E+01   -0.18772E+01  2266   0.313E+00    0.156E+00
RMM:   2    -0.990220356067E+03   -0.58871E+01   -0.52296E+01  1880   0.197E+00    0.106E+00
RMM:   3    -0.992773970621E+03   -0.25536E+01   -0.15483E+01  1598   0.203E+00    0.104E+00
RMM:   4    -0.992411823151E+03    0.36215E+00   -0.42626E-01  1428   0.574E-01    0.637E-01
RMM:   5    -0.992402206052E+03    0.96171E-02   -0.69175E-02  1482   0.201E-01    0.393E-01
RMM:   6    -0.992396764959E+03    0.54411E-02   -0.69453E-03  1441   0.693E-02    0.284E-01
RMM:   7    -0.992393955476E+03    0.28095E-02   -0.17902E-03  1405   0.403E-02    0.209E-01
RMM:   8    -0.992392167137E+03    0.17883E-02   -0.99599E-04  1384   0.304E-02    0.149E-01
RMM:   9    -0.992391645150E+03    0.52199E-03   -0.23367E-04  1397   0.144E-02    0.127E-01
RMM:  10    -0.992391230309E+03    0.41484E-03   -0.12993E-04  1384   0.105E-02    0.110E-01
RMM:  11    -0.992390865800E+03    0.36451E-03   -0.13073E-04  1380   0.105E-02    0.905E-02
RMM:  12    -0.992390622621E+03    0.24318E-03   -0.10340E-04  1382   0.970E-03    0.736E-02
RMM:  13    -0.992390457629E+03    0.16499E-03   -0.86253E-05  1382   0.864E-03    0.585E-02
RMM:  14    -0.992390359086E+03    0.98543E-04   -0.67675E-05  1383   0.766E-03    0.452E-02
RMM:  15    -0.992390308963E+03    0.50122E-04   -0.48336E-05  1384   0.649E-03    0.341E-02
RMM:  16    -0.992390283191E+03    0.25772E-04   -0.48288E-05  1379   0.643E-03    0.225E-02
RMM:  17    -0.992390279269E+03    0.39225E-05   -0.29864E-05  1384   0.512E-03    0.138E-02
RMM:  18    -0.992390283360E+03   -0.40918E-05   -0.17335E-05  1371   0.386E-03    0.737E-03
RMM:  19    -0.992390287095E+03   -0.37346E-05   -0.79459E-06  1327   0.265E-03    0.313E-03
RMM:  20    -0.992390288477E+03   -0.13824E-05   -0.19650E-06  1298   0.133E-03    0.127E-03
RMM:  21    -0.992390288830E+03   -0.35226E-06   -0.20294E-07   830   0.472E-04    0.755E-04
RMM:  22    -0.992390288933E+03   -0.10346E-06   -0.54807E-08   741   0.314E-04    0.718E-04
RMM:  23    -0.992390289134E+03   -0.20118E-06   -0.51453E-08   780   0.268E-04    0.340E-04
RMM:  24    -0.992390289211E+03   -0.76427E-07   -0.29366E-08   727   0.153E-04
   41 T=   275. E= -.10141043E+04 F= -.10181901E+04 E0= -.10181930E+04  EK= 0.40858E+01 SP= 0.00E+00 SK= 0.00E+00
       N       E                     dE             d eps       ncg     rms          rms(c)
RMM:   1    -0.992400919590E+03   -0.10630E-01   -0.21052E-01  1381   0.375E-01    0.768E-03
RMM:   2    -0.992401995381E+03   -0.10758E-02   -0.13270E-02  1714   0.853E-02    0.466E-03
RMM:   3    -0.992401883789E+03    0.11159E-03   -0.23931E-04  1490   0.138E-02    0.272E-03
RMM:   4    -0.992401884139E+03   -0.35006E-06   -0.18258E-05  1665   0.411E-03    0.112E-03
RMM:   5    -0.992401884153E+03   -0.14072E-07   -0.96737E-07  1110   0.838E-04
   42 T=   276. E= -.10141043E+04 F= -.10182006E+04 E0= -.10182035E+04  EK= 0.40964E+01 SP= 0.00E+00 SK= 0.00E+00
       N       E                     dE             d eps       ncg     rms          rms(c)
RMM:   1    -0.992420525148E+03   -0.18641E-01   -0.42209E-02  1387   0.180E-01    0.628E-03
RMM:   2    -0.992420692381E+03   -0.16723E-03   -0.19675E-03  1682   0.419E-02    0.413E-03
RMM:   3    -0.992420686848E+03    0.55323E-05   -0.71934E-05  1494   0.727E-03    0.205E-03
RMM:   4    -0.992420687020E+03   -0.17139E-06   -0.44405E-06  1555   0.239E-03    0.817E-04
RMM:   5    -0.992420687145E+03   -0.12491E-06   -0.39107E-07   932   0.548E-04    0.436E-04
RMM:   6    -0.992420687228E+03   -0.83877E-07   -0.60493E-08   814   0.329E-04
   43 T=   277. E= -.10141044E+04 F= -.10182184E+04 E0= -.10182213E+04  EK= 0.41140E+01 SP= 0.00E+00 SK= 0.00E+00
       N       E                     dE             d eps       ncg     rms          rms(c)
RMM:   1    -0.992444400727E+03   -0.23714E-01   -0.19748E-01  1380   0.380E-01    0.769E-03
RMM:   2    -0.992445406654E+03   -0.10059E-02   -0.12243E-02  1711   0.860E-02    0.534E-03
RMM:   3    -0.992445365174E+03    0.41480E-04   -0.43404E-04  1524   0.154E-02    0.318E-03
RMM:   4    -0.992445364073E+03    0.11007E-05   -0.18257E-05  1648   0.400E-03    0.125E-03
RMM:   5    -0.992445364084E+03   -0.11001E-07   -0.12731E-06  1079   0.848E-04    0.540E-04
RMM:   6    -0.992445364145E+03   -0.60274E-07   -0.12817E-07   836   0.421E-04
   44 T=   278. E= -.10141045E+04 F= -.10182419E+04 E0= -.10182448E+04  EK= 0.41374E+01 SP= 0.00E+00 SK= 0.00E+00
       N       E                     dE             d eps       ncg     rms          rms(c)
RMM:   1    -0.992473779724E+03   -0.28416E-01   -0.27504E-02  1385   0.120E-01    0.642E-03
RMM:   2    -0.992473862953E+03   -0.83229E-04   -0.10541E-03  1635   0.332E-02    0.404E-03
RMM:   3    -0.992473865671E+03   -0.27177E-05   -0.67391E-05  1572   0.632E-03    0.187E-03
RMM:   4    -0.992473865701E+03   -0.30355E-07   -0.26215E-06  1366   0.188E-03    0.764E-04
RMM:   5    -0.992473865862E+03   -0.16062E-06   -0.29399E-07   903   0.469E-04    0.375E-04
RMM:   6    -0.992473865964E+03   -0.10243E-06   -0.54989E-08   812   0.283E-04    0.222E-04
RMM:   7    -0.992473866038E+03   -0.73924E-07   -0.25265E-08   782   0.187E-04
   45 T=   280. E= -.10141046E+04 F= -.10182691E+04 E0= -.10182721E+04  EK= 0.41645E+01 SP= 0.00E+00 SK= 0.00E+00
       N       E                     dE             d eps       ncg     rms          rms(c)
RMM:   1    -0.992503557078E+03   -0.29691E-01   -0.32836E-02  1394   0.146E-01    0.693E-03
RMM:   2    -0.992503658575E+03   -0.10150E-03   -0.13136E-03  1645   0.380E-02    0.410E-03
RMM:   3    -0.992503660566E+03   -0.19908E-05   -0.79907E-05  1562   0.695E-03    0.200E-03
RMM:   4    -0.992503660435E+03    0.13024E-06   -0.31730E-06  1464   0.209E-03    0.791E-04
RMM:   5    -0.992503660502E+03   -0.66779E-07   -0.33462E-07   908   0.477E-04
   46 T=   282. E= -.10141048E+04 F= -.10182976E+04 E0= -.10183006E+04  EK= 0.41928E+01 SP= 0.00E+00 SK= 0.00E+00
       N       E                     dE             d eps       ncg     rms          rms(c)
RMM:   1    -0.992531828548E+03   -0.28168E-01   -0.49448E-02  1381   0.201E-01    0.708E-03
RMM:   2    -0.992532036448E+03   -0.20790E-03   -0.24683E-03  1697   0.460E-02    0.444E-03
RMM:   3    -0.992532035004E+03    0.14436E-05   -0.10904E-04  1522   0.808E-03    0.242E-03
RMM:   4    -0.992532035047E+03   -0.42797E-07   -0.51232E-06  1579   0.243E-03    0.101E-03
RMM:   5    -0.992532035191E+03   -0.14472E-06   -0.49867E-07   951   0.566E-04    0.455E-04
RMM:   6    -0.992532035290E+03   -0.98429E-07   -0.72910E-08   812   0.306E-04
   47 T=   284. E= -.10141050E+04 F= -.10183246E+04 E0= -.10183276E+04  EK= 0.42196E+01 SP= 0.00E+00 SK= 0.00E+00
       N       E                     dE             d eps       ncg     rms          rms(c)
RMM:   1    -0.992556283075E+03   -0.24248E-01   -0.30969E-02  1390   0.133E-01    0.654E-03
RMM:   2    -0.992556383386E+03   -0.10031E-03   -0.12421E-03  1654   0.371E-02    0.400E-03
RMM:   3    -0.992556385455E+03   -0.20688E-05   -0.76823E-05  1550   0.666E-03    0.175E-03
RMM:   4    -0.992556385426E+03    0.28493E-07   -0.29124E-06  1416   0.203E-03    0.750E-04
RMM:   5    -0.992556385549E+03   -0.12296E-06   -0.33813E-07   905   0.477E-04    0.340E-04
RMM:   6    -0.992556385624E+03   -0.74477E-07   -0.50555E-08   812   0.268E-04
   48 T=   285. E= -.10141051E+04 F= -.10183475E+04 E0= -.10183504E+04  EK= 0.42424E+01 SP= 0.00E+00 SK= 0.00E+00
       N       E                     dE             d eps       ncg     rms          rms(c)
RMM:   1    -0.992574239699E+03   -0.17854E-01   -0.62690E-02  1385   0.225E-01    0.659E-03
RMM:   2    -0.992574489751E+03   -0.25005E-03   -0.28919E-03  1685   0.471E-02    0.444E-03
RMM:   3    -0.992574478032E+03    0.11719E-04   -0.91780E-05  1494   0.827E-03    0.238E-03
RMM:   4    -0.992574478141E+03   -0.10879E-06   -0.60650E-06  1606   0.259E-03    0.881E-04
RMM:   5    -0.992574478193E+03   -0.51499E-07   -0.44087E-07   971   0.586E-04
   49 T=   287. E= -.10141052E+04 F= -.10183640E+04 E0= -.10183670E+04  EK= 0.42588E+01 SP= 0.00E+00 SK= 0.00E+00
       N       E                     dE             d eps       ncg     rms          rms(c)
RMM:   1    -0.992584241210E+03   -0.97631E-02   -0.14236E-01  1382   0.344E-01    0.711E-03
RMM:   2    -0.992584753815E+03   -0.51261E-03   -0.63677E-03  1703   0.668E-02    0.479E-03
RMM:   3    -0.992584718655E+03    0.35160E-04   -0.15349E-04  1486   0.115E-02    0.287E-03
RMM:   4    -0.992584718944E+03   -0.28923E-06   -0.11830E-05  1663   0.359E-03    0.115E-03
RMM:   5    -0.992584718937E+03    0.70868E-08   -0.78466E-07  1100   0.796E-04
   50 T=   287. E= -.10141052E+04 F= -.10183727E+04 E0= -.10183756E+04  EK= 0.42674E+01 SP= 0.00E+00 SK= 0.00E+00
       N       E                     dE             d eps       ncg     rms          rms(c)
RMM:   1    -0.992585103505E+03   -0.38456E-03   -0.42808E-01  1380   0.552E-01    0.817E-03
RMM:   2    -0.992586430490E+03   -0.13270E-02   -0.18142E-02  1749   0.103E-01    0.511E-03
RMM:   3    -0.992586294212E+03    0.13628E-03   -0.38248E-04  1465   0.169E-02    0.326E-03
RMM:   4    -0.992586295504E+03   -0.12915E-05   -0.30892E-05  1674   0.516E-03    0.136E-03
RMM:   5    -0.992586295362E+03    0.14200E-06   -0.19465E-06  1256   0.118E-03    0.591E-04
RMM:   6    -0.992586295397E+03   -0.35710E-07   -0.19504E-07   857   0.487E-04
   51 T=   287. E= -.10141052E+04 F= -.10183726E+04 E0= -.10183754E+04  EK= 0.42674E+01 SP= 0.00E+00 SK= 0.00E+00
       N       E                     dE             d eps       ncg     rms          rms(c)
RMM:   1    -0.984397638649E+03    0.81887E+01   -0.64612E+01  2349   0.271E+00    0.329E+00
RMM:   2    -0.983688337853E+03    0.70930E+00   -0.70907E+00  1788   0.259E+00    0.138E+00
RMM:   3    -0.984057244943E+03   -0.36891E+00   -0.48414E+00  2107   0.108E+00    0.934E-01
RMM:   4    -0.984298850499E+03   -0.24161E+00   -0.30818E+00  2077   0.814E-01    0.730E-01
RMM:   5    -0.984449311311E+03   -0.15046E+00   -0.19032E+00  2027   0.596E-01    0.590E-01
RMM:   6    -0.984581639430E+03   -0.13233E+00   -0.15823E+00  2082   0.435E-01    0.626E-01
RMM:   7    -0.984670077518E+03   -0.88438E-01   -0.10472E+00  2071   0.350E-01    0.662E-01
RMM:   8    -0.984754766001E+03   -0.84688E-01   -0.89756E-01  2082   0.293E-01    0.796E-01
RMM:   9    -0.984844030040E+03   -0.89264E-01   -0.10281E+00  1872   0.296E-01    0.757E-01
RMM:  10    -0.984930251495E+03   -0.86221E-01   -0.89961E-01  1837   0.299E-01    0.735E-01
RMM:  11    -0.985061434458E+03   -0.13118E+00   -0.12505E+00  1931   0.267E-01    0.890E-01
RMM:  12    -0.985249451908E+03   -0.18802E+00   -0.15407E+00  1842   0.291E-01    0.105E+00
RMM:  13    -0.985558196595E+03   -0.30874E+00   -0.27041E+00  1932   0.286E-01    0.113E+00
RMM:  14    -0.986504056030E+03   -0.94586E+00   -0.68853E+00  1792   0.442E-01    0.174E+00
RMM:  15    -0.991560442797E+03   -0.50564E+01   -0.46504E+01  1764   0.587E-01    0.220E+00
RMM:  16    -0.993128180671E+03   -0.15677E+01   -0.17999E+01  1565   0.791E-01    0.225E+00
RMM:  17    -0.992820758102E+03    0.30742E+00   -0.65934E-01  1442   0.283E-01    0.220E+00
RMM:  18    -0.992828351104E+03   -0.75930E-02   -0.88894E-02  1486   0.726E-02    0.220E+00
RMM:  19    -0.992836656081E+03   -0.83050E-02   -0.61664E-03  1412   0.291E-02    0.224E+00
RMM:  20    -0.992734257786E+03    0.10240E+00   -0.36928E-02  1380   0.215E-01    0.176E+00
RMM:  21    -0.992621852689E+03    0.11241E+00   -0.11811E-01  1380   0.374E-01    0.966E-01
RMM:  22    -0.992593168013E+03    0.28685E-01   -0.41958E-02  1381   0.205E-01    0.572E-01
RMM:  23    -0.992584555339E+03    0.86127E-02   -0.14545E-02  1382   0.123E-01    0.361E-01
RMM:  24    -0.992582686304E+03    0.18690E-02   -0.18960E-03  1382   0.397E-02    0.287E-01
RMM:  25    -0.992582666470E+03    0.19834E-04   -0.76178E-04  1379   0.289E-02    0.274E-01
RMM:  26    -0.992581320194E+03    0.13463E-02   -0.63107E-04  1384   0.253E-02    0.214E-01
RMM:  27    -0.992580437874E+03    0.88232E-03   -0.65793E-04  1379   0.260E-02    0.160E-01
RMM:  28    -0.992580361311E+03    0.76563E-04   -0.97147E-05  1354   0.886E-03    0.151E-01
RMM:  29    -0.992579996449E+03    0.36486E-03   -0.24107E-04  1379   0.159E-02    0.123E-01
RMM:  30    -0.992579847173E+03    0.14928E-03   -0.13164E-04  1356   0.112E-02    0.109E-01
RMM:  31    -0.992579991144E+03   -0.14397E-03   -0.48897E-05  1302   0.751E-03    0.119E-01
RMM:  32    -0.992579935744E+03    0.55400E-04   -0.56594E-05  1306   0.787E-03    0.115E-01
RMM:  33    -0.992579899761E+03    0.35983E-04   -0.71333E-05  1300   0.911E-03    0.110E-01
RMM:  34    -0.992579769904E+03    0.12986E-03   -0.10044E-04  1327   0.104E-02    0.966E-02
RMM:  35    -0.992579624240E+03    0.14566E-03   -0.83737E-05  1329   0.995E-03    0.808E-02
RMM:  36    -0.992579525332E+03    0.98908E-04   -0.15122E-04  1366   0.127E-02    0.659E-02
RMM:  37    -0.992579473738E+03    0.51594E-04   -0.17496E-04  1374   0.140E-02    0.603E-02
RMM:  38    -0.992579404020E+03    0.69718E-04   -0.24764E-04  1377   0.163E-02    0.475E-02
RMM:  39    -0.992579413569E+03   -0.95490E-05   -0.57845E-05  1308   0.708E-03    0.479E-02
RMM:  40    -0.992579449595E+03   -0.36026E-04   -0.18241E-05  1255   0.436E-03    0.558E-02
RMM:  41    -0.992579475378E+03   -0.25783E-04   -0.76784E-06  1196   0.280E-03    0.609E-02
RMM:  42    -0.992579476772E+03   -0.13934E-05   -0.41798E-06  1176   0.203E-03    0.604E-02
RMM:  43    -0.992579478788E+03   -0.20158E-05   -0.18136E-07   785   0.403E-04    0.608E-02
RMM:  44    -0.992579503546E+03   -0.24758E-04   -0.54747E-06  1193   0.251E-03    0.660E-02
RMM:  45    -0.992579505603E+03   -0.20571E-05   -0.21014E-07   832   0.407E-04    0.664E-02
RMM:  46    -0.992579506290E+03   -0.68724E-06   -0.79833E-08   695   0.301E-04    0.667E-02
RMM:  47    -0.992579511529E+03   -0.52392E-05   -0.50373E-05  1300   0.710E-03    0.666E-02
RMM:  48    -0.992579436076E+03    0.75453E-04   -0.34324E-05  1318   0.557E-03    0.537E-02
RMM:  49    -0.992579430695E+03    0.53811E-05   -0.19506E-06  1171   0.128E-03    0.524E-02
RMM:  50    -0.992579450950E+03   -0.20255E-04   -0.32897E-06  1173   0.192E-03    0.564E-02
RMM:  51    -0.992579417707E+03    0.33243E-04   -0.17643E-05  1257   0.414E-03    0.484E-02
RMM:  52    -0.992579444414E+03   -0.26707E-04   -0.99212E-06  1239   0.329E-03    0.544E-02
RMM:  53    -0.992579444552E+03   -0.13807E-06   -0.11030E-06  1148   0.101E-03    0.539E-02
RMM:  54    -0.992579448876E+03   -0.43241E-05   -0.73892E-07  1122   0.893E-04    0.542E-02
RMM:  55    -0.992579448689E+03    0.18680E-06   -0.26774E-07   861   0.468E-04    0.539E-02
RMM:  56    -0.992579436896E+03    0.11794E-04   -0.18974E-06  1158   0.142E-03    0.514E-02
RMM:  57    -0.992579382736E+03    0.54160E-04   -0.32093E-04  1379   0.180E-02    0.465E-02
RMM:  58    -0.992579371213E+03    0.11523E-04   -0.16010E-05  1356   0.411E-03    0.425E-02
RMM:  59    -0.992579347814E+03    0.23398E-04   -0.15509E-05  1357   0.468E-03    0.349E-02
RMM:  60    -0.992579334086E+03    0.13728E-04   -0.85817E-06  1315   0.336E-03    0.297E-02
RMM:  61    -0.992579321533E+03    0.12553E-04   -0.69836E-06  1264   0.314E-03    0.248E-02
RMM:  62    -0.992579344354E+03   -0.22821E-04   -0.42805E-05  1369   0.728E-03    0.360E-02
RMM:  63    -0.992579328109E+03    0.16245E-04   -0.79335E-06  1264   0.362E-03    0.305E-02
RMM:  64    -0.992579307751E+03    0.20358E-04   -0.13645E-05  1298   0.466E-03    0.228E-02
RMM:  65    -0.992579298232E+03    0.95182E-05   -0.90889E-06  1281   0.367E-03    0.165E-02
RMM:  66    -0.992579294277E+03    0.39556E-05   -0.94872E-06  1254   0.384E-03    0.106E-02
RMM:  67    -0.992579298210E+03   -0.39337E-05   -0.96248E-06  1259   0.386E-03    0.532E-03
RMM:  68    -0.992579304484E+03   -0.62740E-05   -0.28338E-06  1184   0.193E-03    0.292E-03
RMM:  69    -0.992579309210E+03   -0.47252E-05   -0.91552E-07  1127   0.112E-03    0.121E-03
RMM:  70    -0.992579311515E+03   -0.23054E-05   -0.37650E-07   976   0.690E-04    0.395E-04
RMM:  71    -0.992579312412E+03   -0.89650E-06   -0.84371E-08   744   0.292E-04    0.517E-04
RMM:  72    -0.992579312643E+03   -0.23187E-06   -0.15743E-08   639   0.189E-04    0.348E-04
RMM:  73    -0.992579312787E+03   -0.14344E-06   -0.20637E-09   321   0.839E-05    0.275E-04
RMM:  74    -0.992579312923E+03   -0.13602E-06   -0.10870E-08   584   0.146E-04    0.956E-05
RMM:  75    -0.992579312948E+03   -0.25233E-07   -0.22127E-10   234   0.694E-05
   52 T=   286. E= -.10141052E+04 F= -.10183640E+04 E0= -.10183667E+04  EK= 0.42588E+01 SP= 0.00E+00 SK= 0.00E+00
       N       E                     dE             d eps       ncg     rms          rms(c)
RMM:   1    -0.992564374092E+03    0.14939E-01   -0.13469E-01  1391   0.257E-01    0.725E-03
RMM:   2    -0.992564807220E+03   -0.43313E-03   -0.52280E-03  1658   0.686E-02    0.452E-03
RMM:   3    -0.992564797227E+03    0.99931E-05   -0.21689E-04  1547   0.124E-02    0.258E-03
RMM:   4    -0.992564797158E+03    0.69529E-07   -0.99002E-06  1612   0.368E-03    0.101E-03
RMM:   5    -0.992564797323E+03   -0.16522E-06   -0.71990E-07  1029   0.741E-04    0.448E-04
RMM:   6    -0.992564797451E+03   -0.12765E-06   -0.80619E-08   816   0.386E-04    0.238E-04
RMM:   7    -0.992564797515E+03   -0.63941E-07   -0.25002E-08   811   0.209E-04
   53 T=   285. E= -.10141050E+04 F= -.10183478E+04 E0= -.10183505E+04  EK= 0.42428E+01 SP= 0.00E+00 SK= 0.00E+00
       N       E                     dE             d eps       ncg     rms          rms(c)
RMM:   1    -0.992544538934E+03    0.20259E-01   -0.17953E-02  1388   0.107E-01    0.621E-03
RMM:   2    -0.992544587216E+03   -0.48282E-04   -0.63240E-04  1644   0.278E-02    0.419E-03
RMM:   3    -0.992544588584E+03   -0.13689E-05   -0.41982E-05  1554   0.510E-03    0.188E-03
RMM:   4    -0.992544588421E+03    0.16381E-06   -0.22205E-06  1300   0.172E-03    0.749E-04
RMM:   5    -0.992544588427E+03   -0.64319E-08   -0.26103E-07   894   0.466E-04
   54 T=   284. E= -.10141049E+04 F= -.10183260E+04 E0= -.10183285E+04  EK= 0.42211E+01 SP= 0.00E+00 SK= 0.00E+00
       N       E                     dE             d eps       ncg     rms          rms(c)
RMM:   1    -0.992520731147E+03    0.23857E-01   -0.71457E-02  1380   0.196E-01    0.641E-03
RMM:   2    -0.992521097737E+03   -0.36659E-03   -0.45660E-03  1664   0.527E-02    0.430E-03
RMM:   3    -0.992521088707E+03    0.90302E-05   -0.18021E-04  1536   0.930E-03    0.226E-03
RMM:   4    -0.992521088327E+03    0.37953E-06   -0.10064E-05  1537   0.298E-03    0.875E-04
RMM:   5    -0.992521088380E+03   -0.52489E-07   -0.83859E-07   982   0.630E-04
   55 T=   282. E= -.10141047E+04 F= -.10183009E+04 E0= -.10183033E+04  EK= 0.41961E+01 SP= 0.00E+00 SK= 0.00E+00
       N       E                     dE             d eps       ncg     rms          rms(c)
RMM:   1    -0.992495745327E+03    0.25343E-01   -0.22841E-01  1381   0.368E-01    0.637E-03
RMM:   2    -0.992497094002E+03   -0.13487E-02   -0.15871E-02  1714   0.814E-02    0.436E-03
RMM:   3    -0.992496958024E+03    0.13598E-03   -0.24525E-04  1493   0.127E-02    0.240E-03
RMM:   4    -0.992496958311E+03   -0.28724E-06   -0.21325E-05  1655   0.374E-03    0.860E-04
RMM:   5    -0.992496958237E+03    0.73574E-07   -0.56760E-07  1022   0.691E-04
   56 T=   281. E= -.10141046E+04 F= -.10182752E+04 E0= -.10182774E+04  EK= 0.41706E+01 SP= 0.00E+00 SK= 0.00E+00
       N       E                     dE             d eps       ncg     rms          rms(c)
RMM:   1    -0.992474685943E+03    0.22272E-01   -0.14124E-02  1389   0.988E-02    0.583E-03
RMM:   2    -0.992474736221E+03   -0.50278E-04   -0.61478E-04  1677   0.241E-02    0.386E-03
RMM:   3    -0.992474736176E+03    0.44834E-07   -0.34323E-05  1519   0.440E-03    0.163E-03
RMM:   4    -0.992474736109E+03    0.67317E-07   -0.17106E-06  1248   0.138E-03    0.674E-04
RMM:   5    -0.992474736143E+03   -0.34051E-07   -0.19849E-07   867   0.435E-04
   57 T=   279. E= -.10141044E+04 F= -.10182515E+04 E0= -.10182536E+04  EK= 0.41470E+01 SP= 0.00E+00 SK= 0.00E+00
       N       E                     dE             d eps       ncg     rms          rms(c)
RMM:   1    -0.992456412456E+03    0.18324E-01   -0.23849E-02  1381   0.140E-01    0.575E-03
RMM:   2    -0.992456512021E+03   -0.99565E-04   -0.11793E-03  1681   0.330E-02    0.382E-03
RMM:   3    -0.992456510914E+03    0.11067E-05   -0.57127E-05  1511   0.590E-03    0.191E-03
RMM:   4    -0.992456510884E+03    0.29904E-07   -0.30262E-06  1434   0.190E-03    0.732E-04
RMM:   5    -0.992456510941E+03   -0.56985E-07   -0.31370E-07   902   0.486E-04
   58 T=   278. E= -.10141044E+04 F= -.10182319E+04 E0= -.10182338E+04  EK= 0.41275E+01 SP= 0.00E+00 SK= 0.00E+00
       N       E                     dE             d eps       ncg     rms          rms(c)
RMM:   1    -0.992443420901E+03    0.13090E-01   -0.72999E-02  1382   0.249E-01    0.583E-03
RMM:   2    -0.992443654531E+03   -0.23363E-03   -0.31970E-03  1681   0.530E-02    0.382E-03
RMM:   3    -0.992443639796E+03    0.14735E-04   -0.10727E-04  1519   0.908E-03    0.202E-03
RMM:   4    -0.992443639848E+03   -0.52532E-07   -0.61054E-06  1603   0.276E-03    0.782E-04
RMM:   5    -0.992443639933E+03   -0.84998E-07   -0.43822E-07   976   0.595E-04
   59 T=   277. E= -.10141043E+04 F= -.10182177E+04 E0= -.10182194E+04  EK= 0.41134E+01 SP= 0.00E+00 SK= 0.00E+00
       N       E                     dE             d eps       ncg     rms          rms(c)
RMM:   1    -0.992436519415E+03    0.71204E-02   -0.42762E-02  1382   0.195E-01    0.638E-03
RMM:   2    -0.992436686821E+03   -0.16741E-03   -0.20332E-03  1664   0.445E-02    0.383E-03
RMM:   3    -0.992436681404E+03    0.54171E-05   -0.84686E-05  1511   0.763E-03    0.218E-03
RMM:   4    -0.992436681359E+03    0.45009E-07   -0.45095E-06  1572   0.245E-03    0.918E-04
RMM:   5    -0.992436681397E+03   -0.38199E-07   -0.49159E-07   972   0.563E-04
   60 T=   276. E= -.10141043E+04 F= -.10182095E+04 E0= -.10182111E+04  EK= 0.41052E+01 SP= 0.00E+00 SK= 0.00E+00
       N       E                     dE             d eps       ncg     rms          rms(c)
RMM:   1    -0.992435338790E+03    0.13426E-02   -0.33245E-02  1384   0.169E-01    0.609E-03
RMM:   2    -0.992435435843E+03   -0.97053E-04   -0.12599E-03  1628   0.390E-02    0.373E-03
RMM:   3    -0.992435439737E+03   -0.38947E-05   -0.88089E-05  1577   0.725E-03    0.175E-03
RMM:   4    -0.992435439576E+03    0.16090E-06   -0.31116E-06  1471   0.213E-03    0.776E-04
RMM:   5    -0.992435439680E+03   -0.10323E-06   -0.35743E-07   899   0.492E-04    0.436E-04
RMM:   6    -0.992435439753E+03   -0.73662E-07   -0.60992E-08   812   0.324E-04
   61 T=   276. E= -.10141044E+04 F= -.10182072E+04 E0= -.10182085E+04  EK= 0.41028E+01 SP= 0.00E+00 SK= 0.00E+00
       N       E                     dE             d eps       ncg     rms          rms(c)
RMM:   1    -0.992438436650E+03   -0.29970E-02   -0.21548E-01  1381   0.434E-01    0.697E-03
RMM:   2    -0.992439284299E+03   -0.84765E-03   -0.11365E-02  1693   0.835E-02    0.445E-03
RMM:   3    -0.992439216302E+03    0.67997E-04   -0.25317E-04  1510   0.140E-02    0.258E-03
RMM:   4    -0.992439216646E+03   -0.34418E-06   -0.18645E-05  1678   0.402E-03    0.101E-03
RMM:   5    -0.992439216558E+03    0.88417E-07   -0.85202E-07  1052   0.773E-04
   62 T=   276. E= -.10141045E+04 F= -.10182100E+04 E0= -.10182111E+04  EK= 0.41055E+01 SP= 0.00E+00 SK= 0.00E+00
       N       E                     dE             d eps       ncg     rms          rms(c)
RMM:   1    -0.992445882627E+03   -0.66660E-02   -0.36420E-01  1381   0.586E-01    0.738E-03
RMM:   2    -0.992447205550E+03   -0.13229E-02   -0.17690E-02  1697   0.107E-01    0.463E-03
RMM:   3    -0.992447102806E+03    0.10274E-03   -0.44508E-04  1532   0.177E-02    0.267E-03
RMM:   4    -0.992447101811E+03    0.99523E-06   -0.25579E-05  1665   0.480E-03    0.114E-03
RMM:   5    -0.992447101673E+03    0.13756E-06   -0.11445E-06  1157   0.963E-04    0.492E-04
RMM:   6    -0.992447101722E+03   -0.49273E-07   -0.11656E-07   833   0.410E-04
   63 T=   277. E= -.10141045E+04 F= -.10182169E+04 E0= -.10182179E+04  EK= 0.41124E+01 SP= 0.00E+00 SK= 0.00E+00
       N       E                     dE             d eps       ncg     rms          rms(c)
RMM:   1    -0.992458090564E+03   -0.10989E-01   -0.44911E-02  1384   0.202E-01    0.684E-03
RMM:   2    -0.992458217125E+03   -0.12656E-03   -0.17126E-03  1624   0.442E-02    0.414E-03
RMM:   3    -0.992458219873E+03   -0.27480E-05   -0.10615E-04  1572   0.809E-03    0.183E-03
RMM:   4    -0.992458219589E+03    0.28343E-06   -0.37416E-06  1522   0.234E-03    0.787E-04
RMM:   5    -0.992458219672E+03   -0.82509E-07   -0.35509E-07   911   0.514E-04
   64 T=   277. E= -.10141046E+04 F= -.10182272E+04 E0= -.10182280E+04  EK= 0.41227E+01 SP= 0.00E+00 SK= 0.00E+00
       N       E                     dE             d eps       ncg     rms          rms(c)
RMM:   1    -0.992471838512E+03   -0.13619E-01   -0.43604E-02  1382   0.186E-01    0.684E-03
RMM:   2    -0.992471949602E+03   -0.11109E-03   -0.16333E-03  1644   0.426E-02    0.424E-03
RMM:   3    -0.992471950966E+03   -0.13640E-05   -0.92760E-05  1570   0.787E-03    0.190E-03
RMM:   4    -0.992471950853E+03    0.11372E-06   -0.37084E-06  1542   0.229E-03    0.833E-04
RMM:   5    -0.992471950954E+03   -0.10087E-06   -0.33541E-07   917   0.512E-04    0.377E-04
RMM:   6    -0.992471951009E+03   -0.55225E-07   -0.51262E-08   812   0.302E-04
   65 T=   278. E= -.10141046E+04 F= -.10182403E+04 E0= -.10182408E+04  EK= 0.41357E+01 SP= 0.00E+00 SK= 0.00E+00
       N       E                     dE             d eps       ncg     rms          rms(c)
RMM:   1    -0.992487819271E+03   -0.15868E-01   -0.63134E-02  1387   0.253E-01    0.699E-03
RMM:   2    -0.992487958000E+03   -0.13873E-03   -0.23616E-03  1673   0.484E-02    0.420E-03
RMM:   3    -0.992487950855E+03    0.71444E-05   -0.11321E-04  1542   0.873E-03    0.190E-03
RMM:   4    -0.992487950607E+03    0.24823E-06   -0.52458E-06  1599   0.260E-03    0.804E-04
RMM:   5    -0.992487950632E+03   -0.24447E-07   -0.39871E-07   931   0.532E-04
   66 T=   279. E= -.10141046E+04 F= -.10182556E+04 E0= -.10182560E+04  EK= 0.41510E+01 SP= 0.00E+00 SK= 0.00E+00
       N       E                     dE             d eps       ncg     rms          rms(c)
RMM:   1    -0.992506002206E+03   -0.18052E-01   -0.35674E-02  1391   0.148E-01    0.672E-03
RMM:   2    -0.992506108430E+03   -0.10622E-03   -0.13350E-03  1656   0.402E-02    0.419E-03
RMM:   3    -0.992506111177E+03   -0.27467E-05   -0.87074E-05  1542   0.717E-03    0.200E-03
RMM:   4    -0.992506111120E+03    0.56069E-07   -0.36738E-06  1482   0.232E-03    0.878E-04
RMM:   5    -0.992506111185E+03   -0.64814E-07   -0.44299E-07   927   0.530E-04
   67 T=   280. E= -.10141046E+04 F= -.10182733E+04 E0= -.10182735E+04  EK= 0.41687E+01 SP= 0.00E+00 SK= 0.00E+00
       N       E                     dE             d eps       ncg     rms          rms(c)
RMM:   1    -0.992526286388E+03   -0.20175E-01   -0.33356E-02  1389   0.138E-01    0.670E-03
RMM:   2    -0.992526381439E+03   -0.95051E-04   -0.12252E-03  1615   0.393E-02    0.405E-03
RMM:   3    -0.992526386985E+03   -0.55463E-05   -0.98235E-05  1566   0.707E-03    0.201E-03
RMM:   4    -0.992526386816E+03    0.16844E-06   -0.34763E-06  1431   0.227E-03    0.903E-04
RMM:   5    -0.992526386863E+03   -0.46610E-07   -0.45655E-07   935   0.529E-04
   68 T=   282. E= -.10141046E+04 F= -.10182931E+04 E0= -.10182932E+04  EK= 0.41885E+01 SP= 0.00E+00 SK= 0.00E+00
       N       E                     dE             d eps       ncg     rms          rms(c)
RMM:   1    -0.992548123194E+03   -0.21736E-01   -0.10363E-01  1383   0.288E-01    0.653E-03
RMM:   2    -0.992548600546E+03   -0.47735E-03   -0.54296E-03  1673   0.583E-02    0.444E-03
RMM:   3    -0.992548574954E+03    0.25592E-04   -0.17121E-04  1470   0.111E-02    0.266E-03
RMM:   4    -0.992548576089E+03   -0.11349E-05   -0.18818E-05  1671   0.352E-03    0.106E-03
RMM:   5    -0.992548575962E+03    0.12761E-06   -0.76377E-07  1063   0.747E-04    0.493E-04
RMM:   6    -0.992548576007E+03   -0.45358E-07   -0.96249E-08   822   0.376E-04
   69 T=   283. E= -.10141047E+04 F= -.10183149E+04 E0= -.10183148E+04  EK= 0.42102E+01 SP= 0.00E+00 SK= 0.00E+00
       N       E                     dE             d eps       ncg     rms          rms(c)
RMM:   1    -0.992572053281E+03   -0.23477E-01   -0.28563E-02  1397   0.116E-01    0.623E-03
RMM:   2    -0.992572145968E+03   -0.92687E-04   -0.11475E-03  1647   0.368E-02    0.389E-03
RMM:   3    -0.992572149812E+03   -0.38440E-05   -0.83597E-05  1547   0.654E-03    0.201E-03
RMM:   4    -0.992572149725E+03    0.86249E-07   -0.32617E-06  1390   0.213E-03    0.833E-04
RMM:   5    -0.992572149823E+03   -0.97221E-07   -0.43637E-07   923   0.525E-04
   70 T=   285. E= -.10141047E+04 F= -.10183381E+04 E0= -.10183379E+04  EK= 0.42334E+01 SP= 0.00E+00 SK= 0.00E+00
       N       E                     dE             d eps       ncg     rms          rms(c)
RMM:   1    -0.992595342065E+03   -0.23192E-01   -0.14951E-01  1380   0.361E-01    0.653E-03
RMM:   2    -0.992596228399E+03   -0.88633E-03   -0.10078E-02  1752   0.723E-02    0.454E-03
RMM:   3    -0.992596136923E+03    0.91476E-04   -0.17272E-04  1450   0.112E-02    0.273E-03
RMM:   4    -0.992596137359E+03   -0.43656E-06   -0.16010E-05  1661   0.366E-03    0.108E-03
RMM:   5    -0.992596137272E+03    0.87733E-07   -0.10088E-06  1120   0.807E-04    0.487E-04
RMM:   6    -0.992596137317E+03   -0.45169E-07   -0.11831E-07   834   0.382E-04
   71 T=   286. E= -.10141048E+04 F= -.10183618E+04 E0= -.10183615E+04  EK= 0.42570E+01 SP= 0.00E+00 SK= 0.00E+00
       N       E                     dE             d eps       ncg     rms          rms(c)
RMM:   1    -0.992619266085E+03   -0.23129E-01   -0.41390E-01  1381   0.596E-01    0.655E-03
RMM:   2    -0.992619155122E+03    0.11096E-03   -0.45253E-03  1489   0.697E-02    0.405E-03
RMM:   3    -0.992619177223E+03   -0.22100E-04   -0.29160E-04  1689   0.142E-02    0.243E-03
RMM:   4    -0.992619175852E+03    0.13705E-05   -0.88889E-06  1475   0.323E-03    0.999E-04
RMM:   5    -0.992619175942E+03   -0.90120E-07   -0.10700E-06  1129   0.810E-04    0.472E-04
RMM:   6    -0.992619175966E+03   -0.23574E-07   -0.93830E-08   812   0.375E-04
   72 T=   288. E= -.10141049E+04 F= -.10183846E+04 E0= -.10183842E+04  EK= 0.42797E+01 SP= 0.00E+00 SK= 0.00E+00
       N       E                     dE             d eps       ncg     rms          rms(c)
RMM:   1    -0.992639480003E+03   -0.20304E-01   -0.11394E-01  1386   0.312E-01    0.650E-03
RMM:   2    -0.992639653538E+03   -0.17354E-03   -0.28512E-03  1548   0.552E-02    0.406E-03
RMM:   3    -0.992639667636E+03   -0.14098E-04   -0.22036E-04  1666   0.114E-02    0.243E-03
RMM:   4    -0.992639666048E+03    0.15885E-05   -0.56776E-06  1500   0.283E-03    0.102E-03
RMM:   5    -0.992639666104E+03   -0.55952E-07   -0.61361E-07  1026   0.680E-04
   73 T=   289. E= -.10141050E+04 F= -.10184049E+04 E0= -.10184044E+04  EK= 0.42999E+01 SP= 0.00E+00 SK= 0.00E+00
       N       E                     dE             d eps       ncg     rms          rms(c)
RMM:   1    -0.992655862565E+03   -0.16197E-01   -0.32996E-02  1394   0.139E-01    0.617E-03
RMM:   2    -0.992655960750E+03   -0.98185E-04   -0.12585E-03  1635   0.395E-02    0.378E-03
RMM:   3    -0.992655964641E+03   -0.38916E-05   -0.88094E-05  1558   0.701E-03    0.190E-03
RMM:   4    -0.992655964538E+03    0.10332E-06   -0.36438E-06  1453   0.232E-03    0.839E-04
RMM:   5    -0.992655964577E+03   -0.38752E-07   -0.48460E-07   931   0.534E-04
   74 T=   290. E= -.10141051E+04 F= -.10184211E+04 E0= -.10184205E+04  EK= 0.43159E+01 SP= 0.00E+00 SK= 0.00E+00
       N       E                     dE             d eps       ncg     rms          rms(c)
RMM:   1    -0.992665427921E+03   -0.94634E-02   -0.29334E-01  1380   0.497E-01    0.694E-03
RMM:   2    -0.992666844098E+03   -0.14162E-02   -0.17021E-02  1722   0.925E-02    0.472E-03
RMM:   3    -0.992666720438E+03    0.12366E-03   -0.31439E-04  1452   0.156E-02    0.279E-03
RMM:   4    -0.992666721855E+03   -0.14167E-05   -0.32853E-05  1691   0.478E-03    0.109E-03
RMM:   5    -0.992666721561E+03    0.29402E-06   -0.12950E-06  1147   0.966E-04    0.495E-04
RMM:   6    -0.992666721584E+03   -0.22774E-07   -0.14154E-07   842   0.429E-04
   75 T=   291. E= -.10141052E+04 F= -.10184317E+04 E0= -.10184310E+04  EK= 0.43265E+01 SP= 0.00E+00 SK= 0.00E+00
       N       E                     dE             d eps       ncg     rms          rms(c)
RMM:   1    -0.992671012265E+03   -0.42907E-02   -0.31856E-02  1397   0.131E-01    0.682E-03
RMM:   2    -0.992671117495E+03   -0.10523E-03   -0.13196E-03  1660   0.386E-02    0.421E-03
RMM:   3    -0.992671119405E+03   -0.19095E-05   -0.82442E-05  1542   0.678E-03    0.204E-03
RMM:   4    -0.992671119362E+03    0.42492E-07   -0.37142E-06  1459   0.228E-03    0.861E-04
RMM:   5    -0.992671119430E+03   -0.67928E-07   -0.45497E-07   928   0.530E-04
   76 T=   291. E= -.10141052E+04 F= -.10184360E+04 E0= -.10184352E+04  EK= 0.43308E+01 SP= 0.00E+00 SK= 0.00E+00
       N       E                     dE             d eps       ncg     rms          rms(c)
RMM:   1    -0.992668574772E+03    0.25446E-02   -0.15579E-01  1385   0.374E-01    0.760E-03
RMM:   2    -0.992669117639E+03   -0.54287E-03   -0.72670E-03  1663   0.752E-02    0.472E-03
RMM:   3    -0.992669087276E+03    0.30364E-04   -0.25553E-04  1557   0.133E-02    0.277E-03
RMM:   4    -0.992669086543E+03    0.73222E-06   -0.12802E-05  1615   0.377E-03    0.117E-03
RMM:   5    -0.992669086484E+03    0.59692E-07   -0.74242E-07  1057   0.790E-04
   77 T=   291. E= -.10141052E+04 F= -.10184338E+04 E0= -.10184330E+04  EK= 0.43287E+01 SP= 0.00E+00 SK= 0.00E+00
       N       E                     dE             d eps       ncg     rms          rms(c)
RMM:   1    -0.992661248135E+03    0.78384E-02   -0.34452E-02  1392   0.131E-01    0.716E-03
RMM:   2    -0.992661364762E+03   -0.11663E-03   -0.14137E-03  1661   0.404E-02    0.439E-03
RMM:   3    -0.992661368389E+03   -0.36272E-05   -0.94253E-05  1534   0.697E-03    0.229E-03
RMM:   4    -0.992661368268E+03    0.12104E-06   -0.41053E-06  1463   0.240E-03    0.980E-04
RMM:   5    -0.992661368291E+03   -0.23574E-07   -0.52233E-07   941   0.569E-04
   78 T=   291. E= -.10141051E+04 F= -.10184261E+04 E0= -.10184252E+04  EK= 0.43210E+01 SP= 0.00E+00 SK= 0.00E+00
       N       E                     dE             d eps       ncg     rms          rms(c)
RMM:   1    -0.992649077480E+03    0.12291E-01   -0.72679E-02  1383   0.227E-01    0.775E-03
RMM:   2    -0.992649458583E+03   -0.38110E-03   -0.44865E-03  1705   0.586E-02    0.466E-03
RMM:   3    -0.992649442580E+03    0.16003E-04   -0.15620E-04  1503   0.978E-03    0.260E-03
RMM:   4    -0.992649442614E+03   -0.34546E-07   -0.87474E-06  1635   0.312E-03    0.111E-03
RMM:   5    -0.992649442622E+03   -0.73633E-08   -0.65139E-07   974   0.654E-04
   79 T=   290. E= -.10141050E+04 F= -.10184141E+04 E0= -.10184131E+04  EK= 0.43091E+01 SP= 0.00E+00 SK= 0.00E+00
       N       E                     dE             d eps       ncg     rms          rms(c)
RMM:   1    -0.992635079815E+03    0.14363E-01   -0.75356E-02  1385   0.255E-01    0.724E-03
RMM:   2    -0.992635365334E+03   -0.28552E-03   -0.36189E-03  1677   0.572E-02    0.437E-03
RMM:   3    -0.992635354511E+03    0.10823E-04   -0.14308E-04  1531   0.977E-03    0.230E-03
RMM:   4    -0.992635354375E+03    0.13648E-06   -0.73067E-06  1631   0.299E-03    0.962E-04
RMM:   5    -0.992635354363E+03    0.11365E-07   -0.58502E-07   949   0.607E-04
   80 T=   289. E= -.10141048E+04 F= -.10184000E+04 E0= -.10183990E+04  EK= 0.42951E+01 SP= 0.00E+00 SK= 0.00E+00
       N       E                     dE             d eps       ncg     rms          rms(c)
RMM:   1    -0.992621272069E+03    0.14082E-01   -0.32931E-02  1398   0.124E-01    0.684E-03
RMM:   2    -0.992621374401E+03   -0.10233E-03   -0.12907E-03  1647   0.381E-02    0.410E-03
RMM:   3    -0.992621378016E+03   -0.36146E-05   -0.89287E-05  1558   0.678E-03    0.208E-03
RMM:   4    -0.992621377815E+03    0.20082E-06   -0.34850E-06  1454   0.218E-03    0.914E-04
RMM:   5    -0.992621377823E+03   -0.84256E-08   -0.39252E-07   914   0.511E-04
   81 T=   288. E= -.10141047E+04 F= -.10183860E+04 E0= -.10183849E+04  EK= 0.42813E+01 SP= 0.00E+00 SK= 0.00E+00
       N       E                     dE             d eps       ncg     rms          rms(c)
RMM:   1    -0.992607255844E+03    0.14122E-01   -0.72782E-01  1381   0.763E-01    0.912E-03
RMM:   2    -0.992610024067E+03   -0.27682E-02   -0.40324E-02  1701   0.150E-01    0.548E-03
RMM:   3    -0.992609744756E+03    0.27931E-03   -0.89794E-04  1522   0.242E-02    0.352E-03
RMM:   4    -0.992609742776E+03    0.19797E-05   -0.55193E-05  1674   0.669E-03    0.165E-03
RMM:   5    -0.992609742292E+03    0.48343E-06   -0.24342E-06  1265   0.127E-03    0.722E-04
RMM:   6    -0.992609742316E+03   -0.23589E-07   -0.25499E-07   882   0.520E-04
   82 T=   287. E= -.10141046E+04 F= -.10183744E+04 E0= -.10183733E+04  EK= 0.42698E+01 SP= 0.00E+00 SK= 0.00E+00
       N       E                     dE             d eps       ncg     rms          rms(c)
RMM:   1    -0.992602126544E+03    0.76157E-02   -0.43943E-02  1390   0.168E-01    0.687E-03
RMM:   2    -0.992602302408E+03   -0.17586E-03   -0.20630E-03  1673   0.458E-02    0.412E-03
RMM:   3    -0.992602302708E+03   -0.29941E-06   -0.11151E-04  1523   0.794E-03    0.229E-03
RMM:   4    -0.992602302593E+03    0.11522E-06   -0.47798E-06  1551   0.254E-03    0.989E-04
RMM:   5    -0.992602302614E+03   -0.21188E-07   -0.50590E-07   941   0.566E-04
   83 T=   287. E= -.10141046E+04 F= -.10183670E+04 E0= -.10183659E+04  EK= 0.42625E+01 SP= 0.00E+00 SK= 0.00E+00
       N       E                     dE             d eps       ncg     rms          rms(c)
RMM:   1    -0.992600170916E+03    0.21317E-02   -0.36096E-02  1398   0.131E-01    0.670E-03
RMM:   2    -0.992600292020E+03   -0.12110E-03   -0.14883E-03  1651   0.411E-02    0.390E-03
RMM:   3    -0.992600296981E+03   -0.49611E-05   -0.10839E-04  1547   0.725E-03    0.213E-03
RMM:   4    -0.992600296823E+03    0.15795E-06   -0.42229E-06  1462   0.237E-03    0.950E-04
RMM:   5    -0.992600296860E+03   -0.36729E-07   -0.52625E-07   929   0.538E-04
   84 T=   287. E= -.10141045E+04 F= -.10183651E+04 E0= -.10183640E+04  EK= 0.42606E+01 SP= 0.00E+00 SK= 0.00E+00
       N       E                     dE             d eps       ncg     rms          rms(c)
RMM:   1    -0.992604163467E+03   -0.38666E-02   -0.33137E-02  1397   0.122E-01    0.660E-03
RMM:   2    -0.992604266762E+03   -0.10329E-03   -0.12985E-03  1630   0.392E-02    0.385E-03
RMM:   3    -0.992604271803E+03   -0.50414E-05   -0.96261E-05  1567   0.705E-03    0.196E-03
RMM:   4    -0.992604271647E+03    0.15680E-06   -0.37993E-06  1459   0.229E-03    0.864E-04
RMM:   5    -0.992604271690E+03   -0.43947E-07   -0.45157E-07   925   0.520E-04
   85 T=   287. E= -.10141046E+04 F= -.10183693E+04 E0= -.10183681E+04  EK= 0.42647E+01 SP= 0.00E+00 SK= 0.00E+00
       N       E                     dE             d eps       ncg     rms          rms(c)
RMM:   1    -0.992613287727E+03   -0.90161E-02   -0.17364E-01  1380   0.404E-01    0.852E-03
RMM:   2    -0.992614093706E+03   -0.80598E-03   -0.95459E-03  1673   0.844E-02    0.506E-03
RMM:   3    -0.992614079432E+03    0.14274E-04   -0.40258E-04  1553   0.154E-02    0.340E-03
RMM:   4    -0.992614077919E+03    0.15127E-05   -0.14781E-05  1635   0.395E-03    0.164E-03
RMM:   5    -0.992614077862E+03    0.57218E-07   -0.10448E-06  1109   0.837E-04    0.723E-04
RMM:   6    -0.992614077883E+03   -0.21013E-07   -0.14985E-07   834   0.433E-04
   86 T=   288. E= -.10141046E+04 F= -.10183793E+04 E0= -.10183781E+04  EK= 0.42747E+01 SP= 0.00E+00 SK= 0.00E+00
       N       E                     dE             d eps       ncg     rms          rms(c)
RMM:   1    -0.992628760208E+03   -0.14682E-01   -0.56573E-02  1389   0.227E-01    0.686E-03
RMM:   2    -0.992628951567E+03   -0.19136E-03   -0.24234E-03  1650   0.517E-02    0.397E-03
RMM:   3    -0.992628953158E+03   -0.15912E-05   -0.13748E-04  1558   0.937E-03    0.209E-03
RMM:   4    -0.992628952906E+03    0.25248E-06   -0.56879E-06  1571   0.283E-03    0.912E-04
RMM:   5    -0.992628952931E+03   -0.25393E-07   -0.54378E-07   937   0.584E-04
   87 T=   289. E= -.10141047E+04 F= -.10183945E+04 E0= -.10183933E+04  EK= 0.42898E+01 SP= 0.00E+00 SK= 0.00E+00
       N       E                     dE             d eps       ncg     rms          rms(c)
RMM:   1    -0.992647421876E+03   -0.18469E-01   -0.83068E-02  1385   0.290E-01    0.747E-03
RMM:   2    -0.992647699437E+03   -0.27756E-03   -0.35300E-03  1635   0.626E-02    0.428E-03
RMM:   3    -0.992647699896E+03   -0.45897E-06   -0.19127E-04  1577   0.115E-02    0.249E-03
RMM:   4    -0.992647699264E+03    0.63170E-06   -0.75487E-06  1590   0.324E-03    0.112E-03
RMM:   5    -0.992647699276E+03   -0.11816E-07   -0.69587E-07  1008   0.692E-04
   88 T=   290. E= -.10141048E+04 F= -.10184136E+04 E0= -.10184124E+04  EK= 0.43087E+01 SP= 0.00E+00 SK= 0.00E+00
       N       E                     dE             d eps       ncg     rms          rms(c)
RMM:   1    -0.992668240602E+03   -0.20541E-01   -0.12504E-01  1384   0.328E-01    0.731E-03
RMM:   2    -0.992668887392E+03   -0.64679E-03   -0.74770E-03  1700   0.666E-02    0.435E-03
RMM:   3    -0.992668833473E+03    0.53919E-04   -0.16885E-04  1495   0.108E-02    0.252E-03
RMM:   4    -0.992668833649E+03   -0.17576E-06   -0.13273E-05  1660   0.329E-03    0.109E-03
RMM:   5    -0.992668833552E+03    0.97003E-07   -0.68988E-07  1034   0.694E-04
   89 T=   291. E= -.10141050E+04 F= -.10184351E+04 E0= -.10184339E+04  EK= 0.43301E+01 SP= 0.00E+00 SK= 0.00E+00
       N       E                     dE             d eps       ncg     rms          rms(c)
RMM:   1    -0.992690600557E+03   -0.21767E-01   -0.37016E-02  1399   0.137E-01    0.707E-03
RMM:   2    -0.992690734016E+03   -0.13346E-03   -0.16434E-03  1653   0.426E-02    0.407E-03
RMM:   3    -0.992690737329E+03   -0.33129E-05   -0.10984E-04  1544   0.748E-03    0.208E-03
RMM:   4    -0.992690737139E+03    0.18961E-06   -0.43579E-06  1508   0.240E-03    0.936E-04
RMM:   5    -0.992690737178E+03   -0.38679E-07   -0.50278E-07   935   0.538E-04
   90 T=   293. E= -.10141051E+04 F= -.10184574E+04 E0= -.10184563E+04  EK= 0.43524E+01 SP= 0.00E+00 SK= 0.00E+00
       N       E                     dE             d eps       ncg     rms          rms(c)
RMM:   1    -0.992711497296E+03   -0.20760E-01   -0.60486E-02  1395   0.207E-01    0.726E-03
RMM:   2    -0.992711773972E+03   -0.27668E-03   -0.31538E-03  1687   0.519E-02    0.440E-03
RMM:   3    -0.992711767051E+03    0.69207E-05   -0.13373E-04  1499   0.888E-03    0.253E-03
RMM:   4    -0.992711767089E+03   -0.37864E-07   -0.75666E-06  1609   0.291E-03    0.109E-03
RMM:   5    -0.992711767102E+03   -0.13810E-07   -0.61232E-07   974   0.625E-04
   91 T=   294. E= -.10141052E+04 F= -.10184789E+04 E0= -.10184779E+04  EK= 0.43737E+01 SP= 0.00E+00 SK= 0.00E+00
       N       E                     dE             d eps       ncg     rms          rms(c)
RMM:   1    -0.992729702392E+03   -0.17935E-01   -0.11339E-01  1387   0.293E-01    0.775E-03
RMM:   2    -0.992730391487E+03   -0.68909E-03   -0.76587E-03  1707   0.667E-02    0.483E-03
RMM:   3    -0.992730342538E+03    0.48949E-04   -0.19393E-04  1472   0.112E-02    0.297E-03
RMM:   4    -0.992730342762E+03   -0.22422E-06   -0.13796E-05  1658   0.361E-03    0.130E-03
RMM:   5    -0.992730342690E+03    0.72163E-07   -0.93538E-07  1082   0.766E-04
   92 T=   296. E= -.10141053E+04 F= -.10184980E+04 E0= -.10184970E+04  EK= 0.43927E+01 SP= 0.00E+00 SK= 0.00E+00
       N       E                     dE             d eps       ncg     rms          rms(c)
RMM:   1    -0.992744570896E+03   -0.14228E-01   -0.95377E-02  1387   0.269E-01    0.758E-03
RMM:   2    -0.992745043796E+03   -0.47290E-03   -0.53380E-03  1691   0.651E-02    0.456E-03
RMM:   3    -0.992745018475E+03    0.25322E-04   -0.16091E-04  1503   0.108E-02    0.260E-03
RMM:   4    -0.992745018375E+03    0.99957E-07   -0.88325E-06  1647   0.338E-03    0.115E-03
RMM:   5    -0.992745018367E+03    0.72614E-08   -0.66966E-07  1023   0.712E-04
   93 T=   297. E= -.10141054E+04 F= -.10185132E+04 E0= -.10185123E+04  EK= 0.44078E+01 SP= 0.00E+00 SK= 0.00E+00
       N       E                     dE             d eps       ncg     rms          rms(c)
RMM:   1    -0.992754455562E+03   -0.94372E-02   -0.44178E-02  1395   0.148E-01    0.747E-03
RMM:   2    -0.992754604565E+03   -0.14900E-03   -0.18466E-03  1639   0.464E-02    0.437E-03
RMM:   3    -0.992754609945E+03   -0.53797E-05   -0.12869E-04  1545   0.814E-03    0.249E-03
RMM:   4    -0.992754609749E+03    0.19619E-06   -0.49758E-06  1505   0.266E-03    0.110E-03
RMM:   5    -0.992754609804E+03   -0.55108E-07   -0.60894E-07   963   0.598E-04
   94 T=   297. E= -.10141055E+04 F= -.10185232E+04 E0= -.10185225E+04  EK= 0.44178E+01 SP= 0.00E+00 SK= 0.00E+00
       N       E                     dE             d eps       ncg     rms          rms(c)
RMM:   1    -0.992758124872E+03   -0.35151E-02   -0.33642E-02  1400   0.123E-01    0.666E-03
RMM:   2    -0.992758219173E+03   -0.94301E-04   -0.12018E-03  1627   0.393E-02    0.410E-03
RMM:   3    -0.992758225509E+03   -0.63359E-05   -0.99800E-05  1562   0.701E-03    0.195E-03
RMM:   4    -0.992758225404E+03    0.10505E-06   -0.39182E-06  1417   0.238E-03    0.884E-04
RMM:   5    -0.992758225457E+03   -0.52692E-07   -0.48830E-07   930   0.544E-04
   95 T=   297. E= -.10141055E+04 F= -.10185273E+04 E0= -.10185267E+04  EK= 0.44218E+01 SP= 0.00E+00 SK= 0.00E+00
       N       E                     dE             d eps       ncg     rms          rms(c)
RMM:   1    -0.992755202055E+03    0.30233E-02   -0.60844E-02  1388   0.231E-01    0.716E-03
RMM:   2    -0.992755416645E+03   -0.21459E-03   -0.26770E-03  1652   0.529E-02    0.441E-03
RMM:   3    -0.992755416215E+03    0.42956E-06   -0.14227E-04  1556   0.963E-03    0.231E-03
RMM:   4    -0.992755415818E+03    0.39674E-06   -0.60494E-06  1606   0.289E-03    0.959E-04
RMM:   5    -0.992755415826E+03   -0.80036E-08   -0.53924E-07   954   0.596E-04
   96 T=   297. E= -.10141055E+04 F= -.10185250E+04 E0= -.10185244E+04  EK= 0.44194E+01 SP= 0.00E+00 SK= 0.00E+00
       N       E                     dE             d eps       ncg     rms          rms(c)
RMM:   1    -0.992745556676E+03    0.98591E-02   -0.27301E-01  1388   0.531E-01    0.771E-03
RMM:   2    -0.992746249961E+03   -0.69329E-03   -0.10966E-02  1573   0.946E-02    0.479E-03
RMM:   3    -0.992746276237E+03   -0.26276E-04   -0.82828E-04  1644   0.195E-02    0.286E-03
RMM:   4    -0.992746269998E+03    0.62392E-05   -0.17055E-05  1555   0.417E-03    0.125E-03
RMM:   5    -0.992746269936E+03    0.61249E-07   -0.11265E-06  1190   0.874E-04    0.546E-04
RMM:   6    -0.992746269918E+03    0.18728E-07   -0.98868E-08   813   0.385E-04
   97 T=   297. E= -.10141055E+04 F= -.10185162E+04 E0= -.10185158E+04  EK= 0.44107E+01 SP= 0.00E+00 SK= 0.00E+00
       N       E                     dE             d eps       ncg     rms          rms(c)
[...]
RMM:   5    -0.993161722859E+03   -0.35361E-08   -0.88668E-07  1038   0.813E-04
 1970 T=   329. E= -.10141119E+04 F= -.10189990E+04 E0= -.10189957E+04  EK= 0.48871E+01 SP= 0.00E+00 SK= 0.00E+00
       N       E                     dE             d eps       ncg     rms          rms(c)
RMM:   1    -0.993180502906E+03   -0.18780E-01   -0.37949E-02  1404   0.135E-01    0.692E-03
RMM:   2    -0.993180617655E+03   -0.11475E-03   -0.14992E-03  1642   0.418E-02    0.416E-03
RMM:   3    -0.993180622146E+03   -0.44908E-05   -0.10145E-04  1565   0.731E-03    0.231E-03
RMM:   4    -0.993180621897E+03    0.24818E-06   -0.39045E-06  1493   0.232E-03    0.102E-03
RMM:   5    -0.993180621923E+03   -0.25684E-07   -0.45443E-07   944   0.541E-04
 1971 T=   330. E= -.10141121E+04 F= -.10190166E+04 E0= -.10190133E+04  EK= 0.49045E+01 SP= 0.00E+00 SK= 0.00E+00
       N       E                     dE             d eps       ncg     rms          rms(c)
RMM:   1    -0.993203918194E+03   -0.23296E-01   -0.41077E-02  1393   0.160E-01    0.696E-03
RMM:   2    -0.993204088348E+03   -0.17015E-03   -0.20285E-03  1654   0.450E-02    0.417E-03
RMM:   3    -0.993204090403E+03   -0.20558E-05   -0.11218E-04  1550   0.797E-03    0.222E-03
RMM:   4    -0.993204090200E+03    0.20312E-06   -0.47112E-06  1535   0.248E-03    0.947E-04
RMM:   5    -0.993204090242E+03   -0.42157E-07   -0.48827E-07   942   0.554E-04
 1972 T=   331. E= -.10141123E+04 F= -.10190387E+04 E0= -.10190355E+04  EK= 0.49263E+01 SP= 0.00E+00 SK= 0.00E+00
       N       E                     dE             d eps       ncg     rms          rms(c)
RMM:   1    -0.993228217472E+03   -0.24127E-01   -0.49176E-02  1395   0.186E-01    0.757E-03
RMM:   2    -0.993228379328E+03   -0.16186E-03   -0.20633E-03  1655   0.482E-02    0.450E-03
RMM:   3    -0.993228381439E+03   -0.21107E-05   -0.11955E-04  1549   0.846E-03    0.243E-03
RMM:   4    -0.993228381259E+03    0.18040E-06   -0.50464E-06  1584   0.269E-03    0.102E-03
RMM:   5    -0.993228381322E+03   -0.63243E-07   -0.51581E-07   951   0.568E-04
 1973 T=   333. E= -.10141126E+04 F= -.10190616E+04 E0= -.10190585E+04  EK= 0.49490E+01 SP= 0.00E+00 SK= 0.00E+00
       N       E                     dE             d eps       ncg     rms          rms(c)
RMM:   1    -0.993249647611E+03   -0.21266E-01   -0.12410E-01  1386   0.335E-01    0.826E-03
RMM:   2    -0.993249966478E+03   -0.31887E-03   -0.48152E-03  1625   0.709E-02    0.492E-03
RMM:   3    -0.993249970072E+03   -0.35939E-05   -0.24901E-04  1585   0.131E-02    0.285E-03
RMM:   4    -0.993249969249E+03    0.82309E-06   -0.96346E-06  1580   0.371E-03    0.119E-03
RMM:   5    -0.993249969287E+03   -0.37937E-07   -0.79394E-07  1037   0.765E-04
 1974 T=   334. E= -.10141127E+04 F= -.10190817E+04 E0= -.10190788E+04  EK= 0.49690E+01 SP= 0.00E+00 SK= 0.00E+00
       N       E                     dE             d eps       ncg     rms          rms(c)
RMM:   1    -0.993266007778E+03   -0.16039E-01   -0.51940E-02  1395   0.186E-01    0.791E-03
RMM:   2    -0.993266167541E+03   -0.15976E-03   -0.20112E-03  1629   0.489E-02    0.486E-03
RMM:   3    -0.993266173012E+03   -0.54705E-05   -0.12808E-04  1577   0.882E-03    0.259E-03
RMM:   4    -0.993266172827E+03    0.18449E-06   -0.54804E-06  1531   0.282E-03    0.107E-03
RMM:   5    -0.993266172900E+03   -0.72774E-07   -0.61655E-07   979   0.626E-04
 1975 T=   335. E= -.10141128E+04 F= -.10190964E+04 E0= -.10190937E+04  EK= 0.49836E+01 SP= 0.00E+00 SK= 0.00E+00
       N       E                     dE             d eps       ncg     rms          rms(c)
RMM:   1    -0.993275297697E+03   -0.91249E-02   -0.50584E-02  1395   0.176E-01    0.801E-03
RMM:   2    -0.993275504023E+03   -0.20633E-03   -0.24455E-03  1664   0.496E-02    0.489E-03
RMM:   3    -0.993275503402E+03    0.62067E-06   -0.12355E-04  1538   0.860E-03    0.269E-03
RMM:   4    -0.993275503238E+03    0.16413E-06   -0.56215E-06  1581   0.280E-03    0.112E-03
RMM:   5    -0.993275503302E+03   -0.63636E-07   -0.58804E-07   966   0.619E-04
 1976 T=   336. E= -.10141128E+04 F= -.10191042E+04 E0= -.10191016E+04  EK= 0.49914E+01 SP= 0.00E+00 SK= 0.00E+00
       N       E                     dE             d eps       ncg     rms          rms(c)
RMM:   1    -0.993277440992E+03   -0.19378E-02   -0.83138E-02  1400   0.231E-01    0.795E-03
RMM:   2    -0.993277833463E+03   -0.39247E-03   -0.46152E-03  1685   0.615E-02    0.505E-03
RMM:   3    -0.993277812459E+03    0.21003E-04   -0.15091E-04  1529   0.101E-02    0.285E-03
RMM:   4    -0.993277812216E+03    0.24310E-06   -0.85097E-06  1628   0.322E-03    0.116E-03
RMM:   5    -0.993277812197E+03    0.18903E-07   -0.63873E-07  1003   0.687E-04
 1977 T=   336. E= -.10141127E+04 F= -.10191049E+04 E0= -.10191024E+04  EK= 0.49922E+01 SP= 0.00E+00 SK= 0.00E+00
       N       E                     dE             d eps       ncg     rms          rms(c)
RMM:   1    -0.993274057528E+03    0.37547E-02   -0.44489E-02  1399   0.144E-01    0.771E-03
RMM:   2    -0.993274185440E+03   -0.12791E-03   -0.16740E-03  1630   0.453E-02    0.470E-03
RMM:   3    -0.993274192958E+03   -0.75187E-05   -0.13106E-04  1574   0.808E-03    0.247E-03
RMM:   4    -0.993274192607E+03    0.35179E-06   -0.48958E-06  1497   0.262E-03    0.106E-03
RMM:   5    -0.993274192613E+03   -0.59808E-08   -0.58562E-07   954   0.590E-04
 1978 T=   335. E= -.10141126E+04 F= -.10190996E+04 E0= -.10190973E+04  EK= 0.49870E+01 SP= 0.00E+00 SK= 0.00E+00
       N       E                     dE             d eps       ncg     rms          rms(c)
RMM:   1    -0.993266539663E+03    0.76529E-02   -0.45389E-02  1396   0.153E-01    0.748E-03
RMM:   2    -0.993266686481E+03   -0.14682E-03   -0.18211E-03  1632   0.473E-02    0.456E-03
RMM:   3    -0.993266693319E+03   -0.68384E-05   -0.13452E-04  1566   0.827E-03    0.249E-03
RMM:   4    -0.993266693025E+03    0.29376E-06   -0.49000E-06  1489   0.269E-03    0.108E-03
RMM:   5    -0.993266693041E+03   -0.15876E-07   -0.58770E-07   969   0.606E-04
 1979 T=   335. E= -.10141124E+04 F= -.10190904E+04 E0= -.10190882E+04  EK= 0.49780E+01 SP= 0.00E+00 SK= 0.00E+00
       N       E                     dE             d eps       ncg     rms          rms(c)
RMM:   1    -0.993257777721E+03    0.89153E-02   -0.51141E-02  1397   0.160E-01    0.747E-03
RMM:   2    -0.993257944357E+03   -0.16664E-03   -0.20611E-03  1653   0.484E-02    0.456E-03
RMM:   3    -0.993257951566E+03   -0.72097E-05   -0.14674E-04  1564   0.872E-03    0.266E-03
RMM:   4    -0.993257951265E+03    0.30130E-06   -0.55260E-06  1524   0.275E-03    0.115E-03
RMM:   5    -0.993257951273E+03   -0.74215E-08   -0.64620E-07   956   0.636E-04
 1980 T=   334. E= -.10141122E+04 F= -.10190799E+04 E0= -.10190779E+04  EK= 0.49677E+01 SP= 0.00E+00 SK= 0.00E+00
       N       E                     dE             d eps       ncg     rms          rms(c)
RMM:   1    -0.993250584962E+03    0.73663E-02   -0.51045E-02  1404   0.163E-01    0.745E-03
RMM:   2    -0.993250736492E+03   -0.15153E-03   -0.19899E-03  1635   0.487E-02    0.447E-03
RMM:   3    -0.993250743499E+03   -0.70077E-05   -0.14092E-04  1577   0.870E-03    0.261E-03
RMM:   4    -0.993250743091E+03    0.40804E-06   -0.53461E-06  1543   0.277E-03    0.117E-03
RMM:   5    -0.993250743098E+03   -0.72469E-08   -0.61002E-07   956   0.614E-04
 1981 T=   334. E= -.10141121E+04 F= -.10190709E+04 E0= -.10190690E+04  EK= 0.49588E+01 SP= 0.00E+00 SK= 0.00E+00
       N       E                     dE             d eps       ncg     rms          rms(c)
RMM:   1    -0.993247045640E+03    0.36975E-02   -0.11655E-01  1386   0.276E-01    0.752E-03
RMM:   2    -0.993247561501E+03   -0.51586E-03   -0.59881E-03  1699   0.687E-02    0.477E-03
RMM:   3    -0.993247536488E+03    0.25013E-04   -0.17855E-04  1499   0.113E-02    0.281E-03
RMM:   4    -0.993247536529E+03   -0.40862E-07   -0.10433E-05  1657   0.363E-03    0.120E-03
RMM:   5    -0.993247536484E+03    0.44936E-07   -0.76215E-07  1019   0.745E-04
 1982 T=   333. E= -.10141120E+04 F= -.10190658E+04 E0= -.10190640E+04  EK= 0.49538E+01 SP= 0.00E+00 SK= 0.00E+00
       N       E                     dE             d eps       ncg     rms          rms(c)
RMM:   1    -0.993249877105E+03   -0.23406E-02   -0.91164E-02  1387   0.285E-01    0.725E-03
RMM:   2    -0.993250194083E+03   -0.31698E-03   -0.40641E-03  1647   0.645E-02    0.439E-03
RMM:   3    -0.993250194616E+03   -0.53372E-06   -0.20915E-04  1577   0.117E-02    0.260E-03
RMM:   4    -0.993250194004E+03    0.61259E-06   -0.75027E-06  1607   0.321E-03    0.114E-03
RMM:   5    -0.993250193985E+03    0.18481E-07   -0.58323E-07   990   0.663E-04
 1983 T=   333. E= -.10141119E+04 F= -.10190665E+04 E0= -.10190649E+04  EK= 0.49546E+01 SP= 0.00E+00 SK= 0.00E+00
       N       E                     dE             d eps       ncg     rms          rms(c)
RMM:   1    -0.993259548052E+03   -0.93540E-02   -0.43631E-02  1394   0.151E-01    0.681E-03
RMM:   2    -0.993259670380E+03   -0.12233E-03   -0.15681E-03  1618   0.442E-02    0.399E-03
RMM:   3    -0.993259677247E+03   -0.68668E-05   -0.11808E-04  1584   0.799E-03    0.223E-03
RMM:   4    -0.993259677032E+03    0.21506E-06   -0.44382E-06  1486   0.255E-03    0.995E-04
RMM:   5    -0.993259677044E+03   -0.11831E-07   -0.52616E-07   938   0.565E-04
 1984 T=   334. E= -.10141119E+04 F= -.10190741E+04 E0= -.10190726E+04  EK= 0.49622E+01 SP= 0.00E+00 SK= 0.00E+00
       N       E                     dE             d eps       ncg     rms          rms(c)
RMM:   1    -0.993275943208E+03   -0.16266E-01   -0.88966E-02  1387   0.288E-01    0.731E-03
RMM:   2    -0.993276008569E+03   -0.65361E-04   -0.28335E-03  1594   0.561E-02    0.430E-03
RMM:   3    -0.993276016036E+03   -0.74664E-05   -0.18072E-04  1642   0.110E-02    0.248E-03
RMM:   4    -0.993276015315E+03    0.72070E-06   -0.61377E-06  1567   0.296E-03    0.110E-03
RMM:   5    -0.993276015352E+03   -0.36569E-07   -0.55563E-07   962   0.622E-04
 1985 T=   335. E= -.10141119E+04 F= -.10190884E+04 E0= -.10190871E+04  EK= 0.49765E+01 SP= 0.00E+00 SK= 0.00E+00
       N       E                     dE             d eps       ncg     rms          rms(c)
RMM:   1    -0.993298052584E+03   -0.22037E-01   -0.74633E-02  1385   0.247E-01    0.783E-03
RMM:   2    -0.993298386495E+03   -0.33391E-03   -0.40112E-03  1680   0.585E-02    0.486E-03
RMM:   3    -0.993298381552E+03    0.49429E-05   -0.16668E-04  1549   0.105E-02    0.292E-03
RMM:   4    -0.993298381323E+03    0.22969E-06   -0.77887E-06  1632   0.310E-03    0.122E-03
RMM:   5    -0.993298381359E+03   -0.36234E-07   -0.68722E-07   985   0.673E-04
 1986 T=   336. E= -.10141120E+04 F= -.10191088E+04 E0= -.10191075E+04  EK= 0.49967E+01 SP= 0.00E+00 SK= 0.00E+00
       N       E                     dE             d eps       ncg     rms          rms(c)
RMM:   1    -0.993324996408E+03   -0.26615E-01   -0.65866E-02  1386   0.232E-01    0.687E-03
RMM:   2    -0.993325298171E+03   -0.30176E-03   -0.35817E-03  1668   0.561E-02    0.454E-03
RMM:   3    -0.993325290059E+03    0.81111E-05   -0.13829E-04  1543   0.956E-03    0.261E-03
RMM:   4    -0.993325289767E+03    0.29207E-06   -0.66822E-06  1607   0.283E-03    0.102E-03
RMM:   5    -0.993325289781E+03   -0.13635E-07   -0.52736E-07   984   0.605E-04
 1987 T=   338. E= -.10141121E+04 F= -.10191336E+04 E0= -.10191325E+04  EK= 0.50215E+01 SP= 0.00E+00 SK= 0.00E+00
       N       E                     dE             d eps       ncg     rms          rms(c)
RMM:   1    -0.993354524728E+03   -0.29235E-01   -0.13796E-01  1385   0.338E-01    0.706E-03
RMM:   2    -0.993354904626E+03   -0.37990E-03   -0.50859E-03  1601   0.689E-02    0.437E-03
RMM:   3    -0.993354916571E+03   -0.11945E-04   -0.32437E-04  1609   0.139E-02    0.241E-03
RMM:   4    -0.993354914667E+03    0.19043E-05   -0.92233E-06  1554   0.349E-03    0.101E-03
RMM:   5    -0.993354914701E+03   -0.34299E-07   -0.71174E-07  1064   0.746E-04
 1988 T=   340. E= -.10141123E+04 F= -.10191612E+04 E0= -.10191601E+04  EK= 0.50489E+01 SP= 0.00E+00 SK= 0.00E+00
       N       E                     dE             d eps       ncg     rms          rms(c)
RMM:   1    -0.993385264334E+03   -0.30350E-01   -0.30798E-02  1401   0.124E-01    0.708E-03
RMM:   2    -0.993385362901E+03   -0.98567E-04   -0.12331E-03  1649   0.372E-02    0.434E-03
RMM:   3    -0.993385366026E+03   -0.31244E-05   -0.83631E-05  1564   0.667E-03    0.209E-03
RMM:   4    -0.993385365930E+03    0.95271E-07   -0.35736E-06  1486   0.217E-03    0.891E-04
RMM:   5    -0.993385365972E+03   -0.41997E-07   -0.39615E-07   925   0.508E-04
 1989 T=   342. E= -.10141124E+04 F= -.10191895E+04 E0= -.10191886E+04  EK= 0.50772E+01 SP= 0.00E+00 SK= 0.00E+00
       N       E                     dE             d eps       ncg     rms          rms(c)
RMM:   1    -0.993414927676E+03   -0.29562E-01   -0.32616E-02  1394   0.139E-01    0.727E-03
RMM:   2    -0.993415030009E+03   -0.10233E-03   -0.13135E-03  1653   0.389E-02    0.457E-03
RMM:   3    -0.993415032722E+03   -0.27135E-05   -0.85541E-05  1553   0.692E-03    0.225E-03
RMM:   4    -0.993415032583E+03    0.13920E-06   -0.39200E-06  1496   0.232E-03    0.925E-04
RMM:   5    -0.993415032622E+03   -0.39377E-07   -0.45674E-07   936   0.540E-04
 1990 T=   343. E= -.10141124E+04 F= -.10192171E+04 E0= -.10192162E+04  EK= 0.51047E+01 SP= 0.00E+00 SK= 0.00E+00
       N       E                     dE             d eps       ncg     rms          rms(c)
RMM:   1    -0.993442680496E+03   -0.27648E-01   -0.35024E-02  1395   0.131E-01    0.739E-03
RMM:   2    -0.993442778583E+03   -0.98087E-04   -0.12563E-03  1630   0.397E-02    0.452E-03
RMM:   3    -0.993442783989E+03   -0.54061E-05   -0.98206E-05  1577   0.719E-03    0.219E-03
RMM:   4    -0.993442783805E+03    0.18391E-06   -0.36736E-06  1464   0.228E-03    0.932E-04
RMM:   5    -0.993442783859E+03   -0.53915E-07   -0.43417E-07   928   0.535E-04
 1991 T=   345. E= -.10141125E+04 F= -.10192428E+04 E0= -.10192420E+04  EK= 0.51304E+01 SP= 0.00E+00 SK= 0.00E+00
       N       E                     dE             d eps       ncg     rms          rms(c)
RMM:   1    -0.993468014478E+03   -0.25231E-01   -0.35972E-02  1400   0.121E-01    0.740E-03
RMM:   2    -0.993468108308E+03   -0.93830E-04   -0.12234E-03  1628   0.395E-02    0.445E-03
RMM:   3    -0.993468114304E+03   -0.59963E-05   -0.96835E-05  1569   0.690E-03    0.210E-03
RMM:   4    -0.993468114171E+03    0.13331E-06   -0.38018E-06  1429   0.229E-03    0.918E-04
RMM:   5    -0.993468114211E+03   -0.39872E-07   -0.45926E-07   924   0.537E-04
 1992 T=   347. E= -.10141124E+04 F= -.10192661E+04 E0= -.10192653E+04  EK= 0.51536E+01 SP= 0.00E+00 SK= 0.00E+00
       N       E                     dE             d eps       ncg     rms          rms(c)
RMM:   1    -0.993490950416E+03   -0.22836E-01   -0.44054E-02  1395   0.158E-01    0.759E-03
RMM:   2    -0.993491102656E+03   -0.15224E-03   -0.18392E-03  1642   0.452E-02    0.466E-03
RMM:   3    -0.993491105721E+03   -0.30655E-05   -0.11123E-04  1552   0.798E-03    0.240E-03
RMM:   4    -0.993491105512E+03    0.20885E-06   -0.48143E-06  1528   0.259E-03    0.986E-04
RMM:   5    -0.993491105545E+03   -0.32946E-07   -0.57842E-07   965   0.587E-04
 1993 T=   348. E= -.10141124E+04 F= -.10192870E+04 E0= -.10192863E+04  EK= 0.51746E+01 SP= 0.00E+00 SK= 0.00E+00
       N       E                     dE             d eps       ncg     rms          rms(c)
RMM:   1    -0.993512176244E+03   -0.21071E-01   -0.51178E-02  1392   0.173E-01    0.726E-03
RMM:   2    -0.993512348698E+03   -0.17245E-03   -0.21249E-03  1660   0.472E-02    0.460E-03
RMM:   3    -0.993512349305E+03   -0.60686E-06   -0.11486E-04  1545   0.839E-03    0.240E-03
RMM:   4    -0.993512349101E+03    0.20425E-06   -0.52422E-06  1549   0.269E-03    0.977E-04
RMM:   5    -0.993512349134E+03   -0.33571E-07   -0.58093E-07   963   0.606E-04
 1994 T=   349. E= -.10141124E+04 F= -.10193063E+04 E0= -.10193056E+04  EK= 0.51939E+01 SP= 0.00E+00 SK= 0.00E+00
       N       E                     dE             d eps       ncg     rms          rms(c)
RMM:   1    -0.993532412734E+03   -0.20064E-01   -0.73379E-02  1389   0.240E-01    0.703E-03
RMM:   2    -0.993532754506E+03   -0.34177E-03   -0.38940E-03  1682   0.550E-02    0.481E-03
RMM:   3    -0.993532739005E+03    0.15501E-04   -0.13198E-04  1485   0.989E-03    0.272E-03
RMM:   4    -0.993532739350E+03   -0.34508E-06   -0.11719E-05  1633   0.323E-03    0.102E-03
RMM:   5    -0.993532739278E+03    0.72017E-07   -0.64894E-07  1013   0.699E-04
 1995 T=   351. E= -.10141123E+04 F= -.10193247E+04 E0= -.10193240E+04  EK= 0.52124E+01 SP= 0.00E+00 SK= 0.00E+00
       N       E                     dE             d eps       ncg     rms          rms(c)
RMM:   1    -0.993553087751E+03   -0.20348E-01   -0.57250E-02  1392   0.226E-01    0.708E-03
RMM:   2    -0.993553227962E+03   -0.14021E-03   -0.20064E-03  1609   0.486E-02    0.438E-03
RMM:   3    -0.993553232154E+03   -0.41918E-05   -0.12667E-04  1598   0.908E-03    0.230E-03
RMM:   4    -0.993553231625E+03    0.52885E-06   -0.47569E-06  1536   0.265E-03    0.952E-04
RMM:   5    -0.993553231613E+03    0.11700E-07   -0.47204E-07   946   0.588E-04
 1996 T=   352. E= -.10141122E+04 F= -.10193434E+04 E0= -.10193426E+04  EK= 0.52311E+01 SP= 0.00E+00 SK= 0.00E+00
       N       E                     dE             d eps       ncg     rms          rms(c)
RMM:   1    -0.993574474701E+03   -0.21243E-01   -0.47044E-02  1391   0.179E-01    0.703E-03
RMM:   2    -0.993574614537E+03   -0.13984E-03   -0.17500E-03  1626   0.463E-02    0.416E-03
RMM:   3    -0.993574619573E+03   -0.50357E-05   -0.11694E-04  1569   0.839E-03    0.230E-03
RMM:   4    -0.993574619311E+03    0.26192E-06   -0.48085E-06  1520   0.268E-03    0.969E-04
RMM:   5    -0.993574619333E+03   -0.22104E-07   -0.55267E-07   945   0.584E-04
 1997 T=   353. E= -.10141122E+04 F= -.10193630E+04 E0= -.10193622E+04  EK= 0.52507E+01 SP= 0.00E+00 SK= 0.00E+00
       N       E                     dE             d eps       ncg     rms          rms(c)
RMM:   1    -0.993597085784E+03   -0.22466E-01   -0.64577E-02  1392   0.224E-01    0.723E-03
RMM:   2    -0.993597342340E+03   -0.25656E-03   -0.31656E-03  1690   0.538E-02    0.438E-03
RMM:   3    -0.993597333641E+03    0.86985E-05   -0.12996E-04  1519   0.926E-03    0.259E-03
RMM:   4    -0.993597333502E+03    0.13900E-06   -0.68356E-06  1628   0.296E-03    0.111E-03
RMM:   5    -0.993597333479E+03    0.23516E-07   -0.60187E-07   975   0.645E-04
 1998 T=   355. E= -.10141122E+04 F= -.10193840E+04 E0= -.10193832E+04  EK= 0.52717E+01 SP= 0.00E+00 SK= 0.00E+00
       N       E                     dE             d eps       ncg     rms          rms(c)
RMM:   1    -0.993621196995E+03   -0.23863E-01   -0.40451E-02  1402   0.135E-01    0.686E-03
RMM:   2    -0.993621315161E+03   -0.11817E-03   -0.14978E-03  1649   0.422E-02    0.407E-03
RMM:   3    -0.993621320719E+03   -0.55574E-05   -0.10943E-04  1555   0.755E-03    0.237E-03
RMM:   4    -0.993621320453E+03    0.26554E-06   -0.44910E-06  1483   0.250E-03    0.104E-03
RMM:   5    -0.993621320464E+03   -0.10186E-07   -0.54787E-07   952   0.576E-04
 1999 T=   356. E= -.10141123E+04 F= -.10194063E+04 E0= -.10194055E+04  EK= 0.52941E+01 SP= 0.00E+00 SK= 0.00E+00
       N       E                     dE             d eps       ncg     rms          rms(c)
RMM:   1    -0.993645874355E+03   -0.24554E-01   -0.42720E-02  1397   0.145E-01    0.660E-03
RMM:   2    -0.993646039679E+03   -0.16532E-03   -0.20210E-03  1651   0.451E-02    0.399E-03
RMM:   3    -0.993646039259E+03    0.41995E-06   -0.11322E-04  1542   0.788E-03    0.227E-03
RMM:   4    -0.993646039022E+03    0.23637E-06   -0.47089E-06  1537   0.250E-03    0.103E-03
RMM:   5    -0.993646039051E+03   -0.28493E-07   -0.51411E-07   949   0.562E-04
 2000 T=   358. E= -.10141123E+04 F= -.10194295E+04 E0= -.10194287E+04  EK= 0.53172E+01 SP= 0.00E+00 SK= 0.00E+00
